                  Welcome to Q-Chem
     A Quantum Leap Into The Future Of Chemistry


 Q-Chem 5.4 (devel), Q-Chem, Inc., Pleasanton, CA (2021)

 E. Epifanovsky,  A. T. B. Gilbert,  Xintian Feng,  Joonho Lee,  Yuezhi Mao,  
 N. Mardirossian,  P. Pokhilko,  A. White,  M. Wormit,  M. P. Coons,  
 A. L. Dempwolff,  Zhengting Gan,  D. Hait,  P. R. Horn,  L. D. Jacobson,  
 I. Kaliman,  J. Kussmann,  A. W. Lange,  Ka Un Lao,  D. S. Levine,  Jie Liu,  
 S. C. McKenzie,  A. F. Morrison,  K. Nanda,  F. Plasser,  D. R. Rehn,  
 M. L. Vidal,  Zhi-Qiang You,  Ying Zhu,  B. Alam,  B. Albrecht,  
 A. Aldossary,  E. Alguire,  J. H. Andersen,  D. Barton,  K. Begam,  A. Behn,  
 Y. A. Bernard,  E. J. Berquist,  H. Burton,  A. Carreras,  K. Carter-Fenk,  
 R. Chakraborty,  A. D. Chien,  K. D. Closser,  V. Cofer-Shabica,  
 S. Dasgupta,  Jia Deng,  M. de Wergifosse,  M. Diedenhofen,  Hainam Do,  
 S. Ehlert,  Po-Tung Fang,  S. Fatehi,  Qingguo Feng,  T. Friedhoff,  
 J. Gayvert,  Qinghui Ge,  G. Gidofalvi,  M. Goldey,  J. Gomes,  
 C. Gonzalez-Espinoza,  S. Gulania,  A. Gunina,  M. W. D. Hanson-Heine,  
 P. H. P. Harbach,  A. W. Hauser,  M. F. Herbst,  M. Hernandez Vera,  
 M. Hodecker,  Z. C. Holden,  S. Houck,  Xunkun Huang,  Kerwin Hui,  
 B. C. Huynh,  M. Ivanov,  Hyunjun Ji,  Hanjie Jiang,  B. Kaduk,  S. Kaehler,  
 K. Khistyaev,  Jaehoon Kim,  P. Klunzinger,  Z. Koczor-Benda,  
 Joong Hoon Koh,  D. Kosenkov,  L. Koulias,  T. Kowalczyk,  C. M. Krauter,  
 K. Kue,  A. Kunitsa,  T. Kus,  A. Landau,  K. V. Lawler,  D. Lefrancois,  
 S. Lehtola,  Rain Li,  Yi-Pei Li,  Jiashu Liang,  M. Liebenthal,  
 Hung-Hsuan Lin,  You-Sheng Lin,  Fenglai Liu,  Kuan-Yu Liu,  
 M. Loipersberger,  A. Luenser,  A. Manjanath,  P. Manohar,  E. Mansoor,  
 S. F. Manzer,  Shan-Ping Mao,  A. V. Marenich,  T. Markovich,  S. Mason,  
 S. A. Maurer,  P. F. McLaughlin,  M. F. S. J. Menger,  J.-M. Mewes,  
 S. A. Mewes,  P. Morgante,  J. W. Mullinax,  K. J. Oosterbaan,  G. Paran,  
 Alexander C. Paul,  Suranjan K. Paul,  F. Pavosevic,  Zheng Pei,  S. Prager,  
 E. I. Proynov,  E. Ramos,  B. Rana,  A. E. Rask,  A. Rettig,  R. M. Richard,  
 F. Rob,  E. Rossomme,  T. Scheele,  M. Scheurer,  M. Schneider,  
 N. Sergueev,  S. M. Sharada,  W. Skomorowski,  D. W. Small,  C. J. Stein,  
 Yu-Chuan Su,  E. J. Sundstrom,  Zhen Tao,  J. Thirman,  T. Tsuchimochi,  
 N. M. Tubman,  S. P. Veccham,  O. Vydrov,  J. Wenzel,  J. Witte,  A. Yamada,  
 Kun Yao,  S. Yeganeh,  S. R. Yost,  A. Zech,  Igor Ying Zhang,  Xing Zhang,  
 Yu Zhang,  D. Zuev,  A. Aspuru-Guzik,  A. T. Bell,  N. A. Besley,  
 K. B. Bravaya,  B. R. Brooks,  D. Casanova,  Jeng-Da Chai,  S. Coriani,  
 C. J. Cramer,  A. E. DePrince, III,  R. A. DiStasio Jr.,  A. Dreuw,  
 B. D. Dunietz,  T. R. Furlani,  W. A. Goddard III,  S. Grimme,  
 S. Hammes-Schiffer,  T. Head-Gordon,  W. J. Hehre,  Chao-Ping Hsu,  
 T.-C. Jagau,  Yousung Jung,  A. Klamt,  Jing Kong,  D. S. Lambrecht,  
 WanZhen Liang,  N. J. Mayhall,  C. W. McCurdy,  J. B. Neaton,  
 C. Ochsenfeld,  J. A. Parkhill,  R. Peverati,  V. A. Rassolov,  Yihan Shao,  
 L. V. Slipchenko,  T. Stauch,  R. P. Steele,  J. E. Subotnik,  
 A. J. W. Thom,  A. Tkatchenko,  D. G. Truhlar,  T. Van Voorhis,  
 T. A. Wesolowski,  K. B. Whaley,  H. L. Woodcock III,  P. M. Zimmerman,  
 S. Faraji,  P. M. W. Gill,  M. Head-Gordon,  J. M. Herbert,  A. I. Krylov

 Additional authors for Version 5.4.1: 
 S. Kotaru,  Shaozhi Li,  Xiangyuan Li,  F. Matz,  A. Molle,  Haisheng Ren,  
 Yingli Su,  Hung-Yi Tsai,  C. Utku,  Fang Wang

 Contributors to earlier versions of Q-Chem not listed above: 
 R. D. Adamson,  B. Austin,  R. Baer,  J. Baker,  G. J. O. Beran,  
 K. Brandhorst,  S. T. Brown,  E. F. C. Byrd,  A. K. Chakraborty,  
 G. K. L. Chan,  Chun-Min Chang,  Yunqing Chen,  C.-L. Cheng,  
 Siu Hung Chien,  D. M. Chipman,  D. L. Crittenden,  H. Dachsel,  
 R. J. Doerksen,  A. D. Dutoi,  R. G. Edgar,  J. Fosso-Tande,  
 L. Fusti-Molnar,  D. Ghosh,  A. Ghysels,  A. Golubeva-Zadorozhnaya,  
 J. Gonthier,  M. S. Gordon,  S. R. Gwaltney,  G. Hawkins,  J. E. Herr,  
 A. Heyden,  S. Hirata,  E. G. Hohenstein,  G. Kedziora,  F. J. Keil,  
 C. Kelley,  Jihan Kim,  R. A. King,  R. Z. Khaliullin,  P. P. Korambath,  
 W. Kurlancheek,  A. Laurent,  A. M. Lee,  M. S. Lee,  S. V. Levchenko,  
 Ching Yeh Lin,  D. Liotard,  E. Livshits,  R. C. Lochan,  I. Lotan,  
 L. A. Martinez-Martinez,  P. E. Maslen,  N. Nair,  D. P. O'Neill,  
 D. Neuhauser,  E. Neuscamman,  C. M. Oana,  R. Olivares-Amaya,  R. Olson,  
 T. M. Perrine,  B. Peters,  P. A. Pieniazek,  A. Prociuk,  Y. M. Rhee,  
 J. Ritchie,  M. A. Rohrdanz,  E. Rosta,  N. J. Russ,  H. F. Schaefer III,  
 M. W. Schmidt,  N. E. Schultz,  S. Sharma,  N. Shenvi,  C. D. Sherrill,  
 A. C. Simmonett,  A. Sodt,  T. Stein,  D. Stuck,  K. S. Thanthiriwatte,  
 V. Vanovschi,  L. Vogt,  Tao Wang,  A. Warshel,  M. A. Watson,  
 C. F. Williams,  Q. Wu,  X. Xu,  Jun Yang,  W. Zhang,  Yan Zhao

 Please cite Q-Chem as follows:
 Y. Shao et al., Mol. Phys. 113, 184-215 (2015)
 DOI: 10.1080/00268976.2014.952696

 Q-Chem 5.4.1 for Intel X86 EM64T Linux

 Parts of Q-Chem use Armadillo 9.900.5 (Nocturnal Misbehaviour).
 http://arma.sourceforge.net/

 Q-Chem begins on Fri Aug  4 08:33:56 2023  

 Host: p09r13n04.grace.hpc.yale.internal
0

     Scratch files written to /home/tl686/palmer_scratch/qchem_dev/scratch/qchem193125//
 Processing $rem in /home/tl686/qchem_dev/qchem/config/preferences:
 Processing $rem in /home/tl686/.qchemrc:

 Checking the input file for inconsistencies... 	...done.

--------------------------------------------------------------
User input:
--------------------------------------------------------------
$molecule
+1 1
H      0.000000    0.000000    4.022
Au     0.000000    0.000000    2.222000
Au    -1.392000    0.000000    0.000000
Au     1.393000    0.000000    0.000000
Au     0.000000    0.000000   -2.411000
Au     2.626000    0.000000   -2.315000
Au    -2.614000    0.000000   -2.320000
Au     0.000000    0.000000    5.822
Au    -1.392000    0.000000    8.044
Au     1.393000    0.000000    8.044
Au     0.000000    0.000000    10.455
Au     2.626000    0.000000    10.359
Au    -2.614000    0.000000    10.364
$end
$rem
jobtype = sp
sym_ignore = false
input_bohr = false
method = b3lyp
SCF_ALGORITHM = GDM
MAX_SCF_CYCLES=500
SCF_CONVERGENCE = 8
MEM_TOTAL = 100000 
ECP = fit-LANL2DZ
basis = general
NEO = TRUE
NEO_EPC = epc172
NEO_PURECART = 1111 
NEO_VPP = 0
NEO_N_SCF_CONVERGENCE = 8
NEO_E_CONV = 8
MAKE_CUBE_FILES = true
plots = true
$end


$basis
   H 0
   def2-qzvp
   ****
   Au 0
   LANL2DZ
   ****
$end

$neo_basis
H    1
S    1    1.000000
   5.973 1.0
S    1    1.000000
   10.645 1.0
S    1    1.000000
   17.943 1.0
S    1    1.000000
   28.950 1.0
P    1    1.000000
   7.604 1.0
P    1    1.000000
   14.701 1.0
P    1    1.000000
   23.308 1.0
D    1    1.000000
   9.011 1.0
D    1    1.000000
   19.787 1.0
F    1    1.000000
   10.914 1.0
F    1    1.000000
   20.985 1.0
****
$end

$neo_tdks
dt  0.1
maxiter 1
field_type delta
field_amp 0e-2
in_cavity false 2.01 2 1e-2 100
rt_thresh 2
moving_classical_nuclei false
moving_proton_basis_center false
save_per_iter 400
plt_params 80 -10.0 10.0
enforce_eh true
$end
--------------------------------------------------------------
 ----------------------------------------------------------------
             Standard Nuclear Orientation (Angstroms)
    I     Atom           X                Y                Z
 ----------------------------------------------------------------
    1      H      -0.0000000000     0.0000000000     0.0021643836
    2      Au     -1.8000000000    -0.0000000000     0.0021643836
    3      Au     -4.0220000000    -0.0000000000     1.3941643836
    4      Au     -4.0220000000    -0.0000000000    -1.3908356164
    5      Au     -6.4330000000    -0.0000000000     0.0021643836
    6      Au     -6.3370000000    -0.0000000000    -2.6238356164
    7      Au     -6.3420000000    -0.0000000000     2.6161643836
    8      Au      1.8000000000     0.0000000000     0.0021643836
    9      Au      4.0220000000     0.0000000000     1.3941643836
   10      Au      4.0220000000     0.0000000000    -1.3908356164
   11      Au      6.4330000000     0.0000000000     0.0021643836
   12      Au      6.3370000000     0.0000000000    -2.6238356164
   13      Au      6.3420000000     0.0000000000     2.6161643836
 ----------------------------------------------------------------
 Molecular Point Group                 C2v   NOp =  4
 Largest Abelian Subgroup              C2v   NOp =  4
 Nuclear Repulsion Energy =        2536.32082701 hartrees
 There are      114 alpha and      114 beta electrons
 Requested basis set is non-standard
 There are 106 shells and 294 basis functions

 Total QAlloc Memory Limit 100000 MB
 Mega-Array Size       188 MB
 MEM_STATIC part       192 MB

                       Distance Matrix (Angstroms)
             H (  1)   Au(  2)   Au(  3)   Au(  4)   Au(  5)   Au(  6)
   Au(  2)  1.800000
   Au(  3)  4.256072  2.622012
   Au(  4)  4.256399  2.622543  2.785000
   Au(  5)  6.433000  4.633000  2.783987  2.784487
   Au(  6)  6.859551  5.242160  4.637192  2.622883  2.627754
   Au(  7)  6.859589  5.240492  2.622153  4.630167  2.615583  5.240002
   Au(  8)  1.800000  3.600000  5.986096  5.986329  8.233000  8.550242
   Au(  9)  4.256072  5.986096  8.044000  8.512471 10.547260 11.110950
   Au( 10)  4.256399  5.986329  8.512471  8.044000 10.547392 10.432122
   Au( 11)  6.433000  8.233000 10.547260 10.547392 12.866000 13.037207
   Au( 12)  6.859551  8.550242 11.110950 10.432122 13.037207 12.674000
   Au( 13)  6.859589  8.551325 10.435793 11.111640 13.039694 13.719134
             Au(  7)   Au(  8)   Au(  9)   Au( 10)   Au( 11)   Au( 12)
   Au(  8)  8.551325
   Au(  9) 10.435793  2.622012
   Au( 10) 11.111640  2.622543  2.785000
   Au( 11) 13.039694  4.633000  2.783987  2.784487
   Au( 12) 13.719134  5.242160  4.637192  2.622883  2.627754
   Au( 13) 12.684000  5.240492  2.622153  4.630167  2.615583  5.240002


 A cutoff of  1.0D-12 yielded   4327 shell pairs
 There are     32603 function pairs (     38978 Cartesian)
 Requested basis set is non-standard
 Compound shells will be simplified
 There are 106 shells and 294 basis functions
 A cutoff of  1.0D-12 yielded   4327 shell pairs
 There are     32603 function pairs (     38978 Cartesian)
 Smallest overlap matrix eigenvalue = 4.53E-04

 Scale SEOQF with 1.000000e-02/1.000000e-01/1.000000e-01

 Standard Electronic Orientation quadrupole field applied
 Nucleus-field energy     =    -0.0000000503 hartrees
 ================ Generating on-the-fly SAD Guess ================
Attempting to make child job directory: /home/tl686/palmer_scratch/qchem_dev/scratch/qchem193125//Frg1/
Attempting to make child job directory: /home/tl686/palmer_scratch/qchem_dev/scratch/qchem193125//Frg2/
Creating input file /home/tl686/palmer_scratch/qchem_dev/scratch/qchem193125/Frg1.input
using default PutDataFrgm: nothing
calling putenv with: QCSCRATCH=/home/tl686/palmer_scratch/qchem_dev/scratch/qchem193125/ 
Spawning Job For Fragment 0
Done Job For Fragment 0
calling putenv with: QCSCRATCH=/home/tl686/palmer_scratch/qchem_dev/scratch 
calling putenv with: QCTHREADS=32 
Creating input file /home/tl686/palmer_scratch/qchem_dev/scratch/qchem193125/Frg2.input
using default PutDataFrgm: nothing
calling putenv with: QCSCRATCH=/home/tl686/palmer_scratch/qchem_dev/scratch/qchem193125/ 
Spawning Job For Fragment 1
Done Job For Fragment 1
calling putenv with: QCSCRATCH=/home/tl686/palmer_scratch/qchem_dev/scratch 
calling putenv with: QCTHREADS=32 
 Time for running child jobs:  CPU 0.01 s  wall 2.70 s
 ============= Method Specific SAD Guess Constructed =============
 Guess from on-the-fly superposition of atomic densities
 Warning: Energy on first SCF cycle will be non-variational

 -----------------------------------------------------------------------
  General SCF calculation program by
  Eric Jon Sundstrom, Paul Horn, Yuezhi Mao, Dmitri Zuev, Alec White,
  David Stuck, Shaama M.S., Shane Yost, Joonho Lee, David Small,
  Daniel Levine, Susi Lehtola, Hugh Burton, Evgeny Epifanovsky,
  Bang C. Huynh
 -----------------------------------------------------------------------
 Exchange:     0.2000 Hartree-Fock + 0.0800 Slater + 0.7200 B88
 Correlation:  0.1900 VWN1RPA + 0.8100 LYP
 Using SG-1 standard quadrature grid
 using 32 threads for integral computing
 -------------------------------------------------------
 OpenMP Integral computing Module                
 Release: version 1.0, May 2013, Q-Chem Inc. Pittsburgh 
 -------------------------------------------------------
 A restricted SCF calculation will be
 performed using Roothaan-Hall, GDM
 SCF converges when RMS gradient is below 1.0e-08
 ---------------------------------------
  Cycle       Energy         DIIS error
 ---------------------------------------
    1   -1628.1196912615      1.63e-02  Roothaan Step
 ---------------------------------------
  Cycle       Energy        RMS Gradient
 ---------------------------------------
    1   -1626.2091705042      4.13e-02   Normal BFGS step
    2   -1626.1834153410      7.42e-02  Line search: overstep
    3   -1626.2529374243      9.33e-03   Normal BFGS step
    4   -1626.2533729075      1.70e-02   Normal BFGS step
    5   -1626.2555569173      1.07e-02   Normal BFGS step
    6   -1626.2554441234      1.20e-02  Line search: overstep
    7   -1626.2558408772      2.27e-03   Normal BFGS step
    8   -1626.2558367434      3.34e-03  Line search: overstep
    9   -1626.2558994930      1.84e-03   Normal BFGS step
   10   -1626.2559055914      5.79e-04   Normal BFGS step
   11   -1626.2559079195      2.07e-04   Normal BFGS step
   12   -1626.2559078928      2.19e-04   Normal BFGS step
   13   -1626.2559083415      7.12e-05   Normal BFGS step
   14   -1626.2559083405      5.66e-05   Normal BFGS step
   15   -1626.2559083622      2.38e-05   Normal BFGS step
   16   -1626.2559083593      3.02e-05   Normal BFGS step
   17   -1626.2559083657      7.59e-07   Normal BFGS step
   18   -1626.2559083657      2.73e-07   Normal BFGS step
   19   -1626.2559083657      9.09e-08   Normal BFGS step
  GDM::WARNING energy changes are now smaller than effective accuracy.
  GDM::        calculation will continue, but THRESH should be increased
  GDM::        or SCF_CONVERGENCE decreased. 
  GDM::        effective_thresh = 2.05e-09
   20   -1626.2559083655      9.40e-08   Normal BFGS step
  GDM::WARNING energy changes are now smaller than effective accuracy.
  GDM::        calculation will continue, but THRESH should be increased
  GDM::        or SCF_CONVERGENCE decreased. 
  GDM::        effective_thresh = 2.05e-09
   21   -1626.2559083655      1.19e-08   Normal BFGS step
   22   -1626.2559083652      5.05e-09  Convergence criterion met
 ---------------------------------------
 SCF time:   CPU 852.43s  wall 31.00s 
 SCF   energy in the final basis set =    -1626.2559083652
 Total energy in the final basis set =    -1626.2559083652

 Q-Chem warning in module /home/tl686/qchem_dev/qchem/libsym/oriorb.F, line  204:

 Quadrupole field failed to resolve orbital degeneracies.


 Q-Chem warning in module /home/tl686/qchem_dev/qchem/libsym/oriorb.F, line  204:

 Quadrupole field failed to resolve orbital degeneracies.


 ---------------------------------------
 Restricted NEO-SCF calculation
 ---------------------------------------
 VPP is set to false! Use this only in the case of one quantum hydrogen
 This NEO calculation is using proton isotope
 Electronic basis set linear dependency threshold: 10E-6.0000000000
 Nuclear basis set linear dependency threshold: 10E-5.0000000000
 2 particle integral threshold: 10E-12
 Requested basis set is non-standard
 There are 11 shells and 37 basis functions
 NEO centers: 1 
charge 0.0000000000
charge 19.0000000000
charge 19.0000000000
charge 19.0000000000
charge 19.0000000000
charge 19.0000000000
charge 19.0000000000
charge 19.0000000000
charge 19.0000000000
charge 19.0000000000
charge 19.0000000000
charge 19.0000000000
charge 19.0000000000
There are 1 number of quantum nuclei
 Number of electronic ao: 294  Number of electronic mo294
 Number of nuclear ao: 37  Number of nuclear mo37
 Exchange:     0.2000 Hartree-Fock + 0.0800 Slater + 0.7200 B88
 Correlation:  0.1900 VWN1RPA + 0.8100 LYP
 Using SG-1 standard quadrature grid
 Grid_batch_sz128
 Dft_grid_thresh 12
 Grid/integral threshold: 10E-12
 Read electronic density from eSCF
 NEO-SCF calculation will be performed using Roothaan-Hall, GDM
 NEO-SCF Cycles 1
 Nuclear Block
 ---------------------------------------
  Cycle       Energy        RMS Gradient
 ---------------------------------------
    1    2505.8505652716      5.26e-15   Normal BFGS step
    2    2505.8505652716      5.26e-15  Convergence criterion met
 Electronic Block
 ---------------------------------------
  Cycle       Energy        RMS Gradient
 ---------------------------------------
    1   -1626.2181738051      9.56e-03   Normal BFGS step
    2   -1626.2175532563      2.16e-02  Line search: overstep
    3   -1626.2184358529      3.44e-03   Normal BFGS step
    4   -1626.2184146779      3.15e-03  Line search: overstep
    5   -1626.2184650855      1.59e-03   Normal BFGS step
    6   -1626.2184701780      6.71e-04   Normal BFGS step
    7   -1626.2184709831      3.98e-04   Normal BFGS step
    8   -1626.2184719153      1.41e-04   Normal BFGS step
    9   -1626.2184720326      3.29e-05   Normal BFGS step
   10   -1626.2184720733      2.17e-05   Normal BFGS step
   11   -1626.2184720777      1.15e-05   Normal BFGS step
   12   -1626.2184720788      1.20e-05   Normal BFGS step
   13   -1626.2184720795      3.81e-06   Normal BFGS step
   14   -1626.2184720796      1.03e-06   Normal BFGS step
   15   -1626.2184720796      9.35e-07   Normal BFGS step
   16   -1626.2184720796      9.09e-07   Normal BFGS step
   17   -1626.2184720796      1.57e-07   Normal BFGS step
   18   -1626.2184720796      1.97e-07   Normal BFGS step
   19   -1626.2184720796      3.88e-07   Normal BFGS step
   20   -1626.2184720796      4.84e-08   Normal BFGS step
   21   -1626.2184720796      1.87e-08   Normal BFGS step
   22   -1626.2184720796      1.55e-08   Normal BFGS step
   23   -1626.2184720796      7.57e-09   Normal BFGS step
   24   -1626.2184720796      7.57e-09  Convergence criterion met
 NEO-SCF Cycles 2
 Nuclear Block
 ---------------------------------------
  Cycle       Energy        RMS Gradient
 ---------------------------------------
    1   -1626.2414336189      7.53e-02   Normal BFGS step
    2   -1626.2457841925      2.12e-02   Normal BFGS step
    3   -1626.2462003359      3.93e-03   Normal BFGS step
    4   -1626.2462170903      4.85e-04   Normal BFGS step
    5   -1626.2462172622      1.24e-04   Normal BFGS step
    6   -1626.2462172789      3.71e-06   Normal BFGS step
    7   -1626.2462172789      7.24e-07   Normal BFGS step
    8   -1626.2462172789      2.63e-08   Normal BFGS step
    9   -1626.2462172789      1.05e-08   Normal BFGS step
   10   -1626.2462172789      1.16e-09   Normal BFGS step
   11   -1626.2462172789      1.16e-09  Convergence criterion met
 Electronic Block
 ---------------------------------------
  Cycle       Energy        RMS Gradient
 ---------------------------------------
    1   -1626.2463804217      1.27e-03   Normal BFGS step
    2   -1626.2463710186      2.97e-03  Line search: overstep
    3   -1626.2463848069      4.06e-04   Normal BFGS step
    4   -1626.2463846124      4.07e-04  Line search: overstep
    5   -1626.2463854398      2.04e-04   Normal BFGS step
    6   -1626.2463855218      8.99e-05   Normal BFGS step
    7   -1626.2463855643      4.75e-05   Normal BFGS step
    8   -1626.2463855729      2.35e-05   Normal BFGS step
    9   -1626.2463855814      4.26e-06   Normal BFGS step
   10   -1626.2463855815      3.21e-06   Normal BFGS step
   11   -1626.2463855819      1.26e-06   Normal BFGS step
   12   -1626.2463855818      1.81e-06   Normal BFGS step
   13   -1626.2463855819      2.03e-07   Normal BFGS step
   14   -1626.2463855819      6.47e-07   Normal BFGS step
   15   -1626.2463855819      6.72e-07   Normal BFGS step
   16   -1626.2463855819      3.89e-07   Normal BFGS step
   17   -1626.2463855819      5.53e-08   Normal BFGS step
   18   -1626.2463855819      9.63e-08   Normal BFGS step
   19   -1626.2463855819      5.70e-09   Normal BFGS step
   20   -1626.2463855819      5.70e-09  Convergence criterion met
 NEO-SCF Cycles 3
 Nuclear Block
 ---------------------------------------
  Cycle       Energy        RMS Gradient
 ---------------------------------------
    1   -1626.2463873384      4.16e-03   Normal BFGS step
    2   -1626.2463993242      1.11e-03   Normal BFGS step
    3   -1626.2464007248      2.07e-04   Normal BFGS step
    4   -1626.2464007630      5.00e-05   Normal BFGS step
    5   -1626.2464007650      2.52e-06   Normal BFGS step
    6   -1626.2464007650      1.35e-07   Normal BFGS step
    7   -1626.2464007650      5.32e-08   Normal BFGS step
    8   -1626.2464007650      1.19e-08   Normal BFGS step
    9   -1626.2464007650      2.22e-09   Normal BFGS step
   10   -1626.2464007650      2.22e-09  Convergence criterion met
 Electronic Block
 ---------------------------------------
  Cycle       Energy        RMS Gradient
 ---------------------------------------
    1   -1626.2464020579      3.13e-04   Normal BFGS step
    2   -1626.2464014406      7.32e-04  Line search: overstep
    3   -1626.2464023159      1.02e-04   Normal BFGS step
    4   -1626.2464022972      9.85e-05   Normal BFGS step
    5   -1626.2464023507      2.15e-05   Normal BFGS step
    6   -1626.2464023491      1.71e-05   Normal BFGS step
    7   -1626.2464023528      3.48e-06   Normal BFGS step
    8   -1626.2464023528      2.62e-06   Normal BFGS step
    9   -1626.2464023529      3.44e-07   Normal BFGS step
   10   -1626.2464023529      4.40e-07   Normal BFGS step
   11   -1626.2464023529      1.95e-07   Normal BFGS step
   12   -1626.2464023529      2.70e-07   Normal BFGS step
   13   -1626.2464023529      2.56e-07   Normal BFGS step
   14   -1626.2464023529      5.55e-07   Normal BFGS step
   15   -1626.2464023529      7.15e-08   Normal BFGS step
   16   -1626.2464023529      1.03e-07   Normal BFGS step
   17   -1626.2464023529      1.23e-09   Normal BFGS step
   18   -1626.2464023529      1.23e-09  Convergence criterion met
 NEO-SCF Cycles 4
 Nuclear Block
 ---------------------------------------
  Cycle       Energy        RMS Gradient
 ---------------------------------------
    1   -1626.2464023706      4.30e-04   Normal BFGS step
    2   -1626.2464025048      1.15e-04   Normal BFGS step
    3   -1626.2464025207      2.34e-05   Normal BFGS step
    4   -1626.2464025212      4.68e-06   Normal BFGS step
    5   -1626.2464025212      4.08e-07   Normal BFGS step
    6   -1626.2464025212      1.06e-07   Normal BFGS step
    7   -1626.2464025212      2.17e-08   Normal BFGS step
    8   -1626.2464025212      4.87e-09   Normal BFGS step
    9   -1626.2464025212      4.87e-09  Convergence criterion met
 Electronic Block
 ---------------------------------------
  Cycle       Energy        RMS Gradient
 ---------------------------------------
    1   -1626.2464025360      3.34e-05   Normal BFGS step
    2   -1626.2464025289      7.82e-05  Line search: overstep
    3   -1626.2464025389      1.09e-05   Normal BFGS step
    4   -1626.2464025387      1.05e-05   Normal BFGS step
    5   -1626.2464025393      2.32e-06   Normal BFGS step
    6   -1626.2464025393      1.84e-06   Normal BFGS step
    7   -1626.2464025393      3.65e-07   Normal BFGS step
    8   -1626.2464025393      2.65e-07   Normal BFGS step
    9   -1626.2464025393      1.07e-07   Normal BFGS step
   10   -1626.2464025393      1.75e-07   Normal BFGS step
   11   -1626.2464025393      1.41e-08   Normal BFGS step
   12   -1626.2464025393      1.60e-08   Normal BFGS step
   13   -1626.2464025393      7.32e-09   Normal BFGS step
   14   -1626.2464025393      7.32e-09  Convergence criterion met
 NEO-SCF Cycles 5
 Nuclear Block
 ---------------------------------------
  Cycle       Energy        RMS Gradient
 ---------------------------------------
    1   -1626.2464025348      9.05e-05   Normal BFGS step
    2   -1626.2464025409      2.39e-05   Normal BFGS step
    3   -1626.2464025416      3.36e-06   Normal BFGS step
    4   -1626.2464025416      3.34e-07   Normal BFGS step
    5   -1626.2464025416      1.48e-07   Normal BFGS step
    6   -1626.2464025416      3.27e-08   Normal BFGS step
    7   -1626.2464025416      6.38e-09   Normal BFGS step
    8   -1626.2464025416      6.38e-09  Convergence criterion met
 Electronic Block
 ---------------------------------------
  Cycle       Energy        RMS Gradient
 ---------------------------------------
    1   -1626.2464025421      3.59e-06   Normal BFGS step
    2   -1626.2464025420      8.38e-06   Normal BFGS step
    3   -1626.2464025422      1.29e-06   Normal BFGS step
    4   -1626.2464025421      2.15e-06   Normal BFGS step
    5   -1626.2464025422      3.17e-07   Normal BFGS step
    6   -1626.2464025422      6.21e-07   Normal BFGS step
    7   -1626.2464025422      5.40e-08   Normal BFGS step
    8   -1626.2464025422      9.38e-08   Normal BFGS step
    9   -1626.2464025422      1.47e-08   Normal BFGS step
   10   -1626.2464025422      4.47e-08   Normal BFGS step
   11   -1626.2464025422      3.33e-08   Normal BFGS step
   12   -1626.2464025422      6.28e-08   Normal BFGS step
  GDM::WARNING energy changes are now smaller than effective accuracy.
  GDM::        calculation will continue, but THRESH should be increased
  GDM::        or SCF_CONVERGENCE decreased. 
  GDM::        effective_thresh = 2.05e-09
   13   -1626.2464025422      6.68e-10   Normal BFGS step
   14   -1626.2464025422      6.68e-10  Convergence criterion met

 E(NEO-SCF) = -1626.2464025422

 E(NEO-SCF excluding KE quantum protons) = -1626.2543537493
 NEO SCF time:       CPU 9862.59s  wall 341.84s 

 ---------------------------------------
 Electronic Orbital Energies (a.u.)
 ---------------------------------------
 Alpha MOs
  -- Occupied --
-4.3053754 -4.3053754 -4.2957849 -4.2957817 -4.2937493 -4.2937474 -4.2935517 -4.2935423 
-4.2773643 -4.2773638 -4.2768283 -4.2768277 -2.4504939 -2.4502736 -2.4385183 -2.4385122 
-2.4365150 -2.4365100 -2.4347250 -2.4347093 -2.4318548 -2.4318509 -2.4309330 -2.4309316 
-2.4262537 -2.4262521 -2.4258645 -2.4258479 -2.4246064 -2.4246059 -2.4191752 -2.4191752 
-2.4180200 -2.4180196 -2.4177324 -2.4177322 -2.4162975 -2.4162974 -2.4151349 -2.4151347 
-2.4105611 -2.4105611 -2.4099254 -2.4099253 -2.4026258 -2.4026257 -2.4021677 -2.4021676 
-0.5883557 -0.5465921 -0.5346114 -0.5330355 -0.5321151 -0.5310013 -0.5056690 -0.5056558 
-0.4990318 -0.4927913 -0.4911109 -0.4887942 -0.4876041 -0.4855028 -0.4850548 -0.4792108 
-0.4791651 -0.4664096 -0.4662500 -0.4562594 -0.4551260 -0.4547731 -0.4539743 -0.4419013 
-0.4412303 -0.4408320 -0.4389407 -0.4363636 -0.4338590 -0.4333870 -0.4329670 -0.4320982 
-0.4277701 -0.4270599 -0.4269681 -0.4269591 -0.4238551 -0.4233642 -0.4233559 -0.4226803 
-0.4169119 -0.4168188 -0.4150616 -0.4150364 -0.4127108 -0.4113030 -0.4073547 -0.4073253 
-0.4064069 -0.4054412 -0.4035894 -0.4013328 -0.4006557 -0.3994565 -0.3990030 -0.3988768 
-0.3976564 -0.3957913 -0.3957912 -0.3890635 -0.3887632 -0.3875665 -0.3867422 -0.3608974 
-0.3608192 -0.3555269 
  -- Virtual --
-0.3051418 -0.2240769 -0.2183831 -0.2179837 -0.2175695 -0.2053905 -0.1675185 -0.1618907 
-0.1616851 -0.1289588 -0.1203125 -0.1166811 -0.1019399 -0.1016882 -0.1014173 -0.1013383 
-0.0996077 -0.0946973 -0.0864239 -0.0845541 -0.0441539 -0.0438691 -0.0370350 -0.0359855 
-0.0352201 -0.0319863 -0.0316699 -0.0290648 -0.0268906 -0.0235399 -0.0235346 -0.0180526 
-0.0174145 -0.0147398 -0.0095030 -0.0089942  0.0063339  0.0067101  0.0078681  0.0111228 
 0.0130262  0.0140625  0.0226178  0.0232782  0.0243102  0.0273158  0.0328262  0.0334911 
 0.0362438  0.0369134  0.0412918  0.0413004  0.0550361  0.0629237  0.0773315  0.0817207 
 0.0824586  0.0895983  0.0899529  0.0900671  0.0935131  0.1033763  0.1072169  0.1107934 
 0.1114705  0.1308324  0.1333435  0.1450015  0.1511472  0.1645766  0.1707819  0.1808231 
 0.1888174  0.2186874  0.2331314  0.2347047  0.2532396  0.2666519  0.2667530  0.2669935 
 0.2697658  0.2717306  0.2719577  0.2723216  0.2784191  0.2819119  0.2958259  0.2991256 
 0.3198201  0.3247436  0.3298963  0.3395336  0.3407496  0.3484535  0.3545542  0.3605231 
 0.3639268  0.3639929  0.3644857  0.3793452  0.3857972  0.3962539  0.3993245  0.4116898 
 0.4175712  0.4243816  0.4256118  0.4283971  0.4360263  0.4370367  0.4476814  0.4527000 
 0.4725975  0.4824972  0.4857041  0.4917595  0.4962262  0.5026403  0.5141942  0.5227682 
 0.5256719  0.5316817  0.5451723  0.5468807  0.5518136  0.5542650  0.5555135  0.5673121 
 0.5919187  0.6048296  0.6083851  0.6289970  0.6554709  0.6697766  0.6802232  0.7028199 
 0.7134949  0.7378986  0.7900066  0.8235657  0.8371005  0.8428530  0.8726432  1.0521895 
 1.7400156  1.7474611  1.7930828  1.8372537  1.8935547  2.2313514  2.2526199  2.2837879 
 4.8866043  5.0984239  5.5363909  5.5388403  5.5407613  5.5694872  5.5730283  5.5772889 
 5.6187195  5.6187260  6.2649811  6.7426611  6.7740358  6.9064915  7.3697065  7.4452477 
 7.4869376  7.4881876  7.6463769  7.6966145  7.7189588  7.7608168  8.8327227  8.9067682 
 8.9446297 10.4887970 10.8109356 11.0151557 
 ---------------------------------------
 Nuclear Orbital Energies (a.u.)
 ---------------------------------------
  -- Occupied --
   -0.8129 
  -- Virtual --
   -0.8025    -0.8024    -0.8010    -0.7921    -0.7902    -0.7898    -0.7877    -0.7876 
   -0.7872    -0.7790    -0.7790    -0.7769    -0.7769    -0.7762    -0.7761    -0.7760 
   -0.7718    -0.7716    -0.7681    -0.7563    -0.7548    -0.7544    -0.7514    -0.7512 
   -0.7479    -0.7390    -0.7390    -0.7374    -0.7371    -0.7367    -0.7359    -0.7359 
   -0.7324    -0.7321    -0.7254    -0.7095 
 ---------------------------------------

 ---------------------------------------
 Electronic Orbital Energies (a.u.)
 ---------------------------------------
 Alpha MOs
  -- Occupied --
   -4.3054    -4.3054    -4.2958    -4.2958    -4.2937    -4.2937    -4.2936    -4.2935 
   -4.2774    -4.2774    -4.2768    -4.2768    -2.4505    -2.4503    -2.4385    -2.4385 
   -2.4365    -2.4365    -2.4347    -2.4347    -2.4319    -2.4319    -2.4309    -2.4309 
   -2.4263    -2.4263    -2.4259    -2.4258    -2.4246    -2.4246    -2.4192    -2.4192 
   -2.4180    -2.4180    -2.4177    -2.4177    -2.4163    -2.4163    -2.4151    -2.4151 
   -2.4106    -2.4106    -2.4099    -2.4099    -2.4026    -2.4026    -2.4022    -2.4022 
   -0.5884    -0.5466    -0.5346    -0.5330    -0.5321    -0.5310    -0.5057    -0.5057 
   -0.4990    -0.4928    -0.4911    -0.4888    -0.4876    -0.4855    -0.4851    -0.4792 
   -0.4792    -0.4664    -0.4662    -0.4563    -0.4551    -0.4548    -0.4540    -0.4419 
   -0.4412    -0.4408    -0.4389    -0.4364    -0.4339    -0.4334    -0.4330    -0.4321 
   -0.4278    -0.4271    -0.4270    -0.4270    -0.4239    -0.4234    -0.4234    -0.4227 
   -0.4169    -0.4168    -0.4151    -0.4150    -0.4127    -0.4113    -0.4074    -0.4073 
   -0.4064    -0.4054    -0.4036    -0.4013    -0.4007    -0.3995    -0.3990    -0.3989 
   -0.3977    -0.3958    -0.3958    -0.3891    -0.3888    -0.3876    -0.3867    -0.3609 
   -0.3608    -0.3555 
  -- Virtual --
   -0.3051    -0.2241    -0.2184    -0.2180    -0.2176    -0.2054    -0.1675    -0.1619 
   -0.1617    -0.1290    -0.1203    -0.1167    -0.1019    -0.1017    -0.1014    -0.1013 
   -0.0996    -0.0947    -0.0864    -0.0846    -0.0442    -0.0439    -0.0370    -0.0360 
   -0.0352    -0.0320    -0.0317    -0.0291    -0.0269    -0.0235    -0.0235    -0.0181 
   -0.0174    -0.0147    -0.0095    -0.0090     0.0063     0.0067     0.0079     0.0111 
    0.0130     0.0141     0.0226     0.0233     0.0243     0.0273     0.0328     0.0335 
    0.0362     0.0369     0.0413     0.0413     0.0550     0.0629     0.0773     0.0817 
    0.0825     0.0896     0.0900     0.0901     0.0935     0.1034     0.1072     0.1108 
    0.1115     0.1308     0.1333     0.1450     0.1511     0.1646     0.1708     0.1808 
    0.1888     0.2187     0.2331     0.2347     0.2532     0.2667     0.2668     0.2670 
    0.2698     0.2717     0.2720     0.2723     0.2784     0.2819     0.2958     0.2991 
    0.3198     0.3247     0.3299     0.3395     0.3407     0.3485     0.3546     0.3605 
    0.3639     0.3640     0.3645     0.3793     0.3858     0.3963     0.3993     0.4117 
    0.4176     0.4244     0.4256     0.4284     0.4360     0.4370     0.4477     0.4527 
    0.4726     0.4825     0.4857     0.4918     0.4962     0.5026     0.5142     0.5228 
    0.5257     0.5317     0.5452     0.5469     0.5518     0.5543     0.5555     0.5673 
    0.5919     0.6048     0.6084     0.6290     0.6555     0.6698     0.6802     0.7028 
    0.7135     0.7379     0.7900     0.8236     0.8371     0.8429     0.8726     1.0522 
    1.7400     1.7475     1.7931     1.8373     1.8936     2.2314     2.2526     2.2838 
    4.8866     5.0984     5.5364     5.5388     5.5408     5.5695     5.5730     5.5773 
    5.6187     5.6187     6.2650     6.7427     6.7740     6.9065     7.3697     7.4452 
    7.4869     7.4882     7.6464     7.6966     7.7190     7.7608     8.8327     8.9068 
    8.9446    10.4888    10.8109    11.0152 
 ---------------------------------------
 Nuclear Orbital Energies (a.u.)
 ---------------------------------------
  -- Occupied --
   -0.8129 
  -- Virtual --
   -0.8025    -0.8024    -0.8010    -0.7921    -0.7902    -0.7898    -0.7877    -0.7876 
   -0.7872    -0.7790    -0.7790    -0.7769    -0.7769    -0.7762    -0.7761    -0.7760 
   -0.7718    -0.7716    -0.7681    -0.7563    -0.7548    -0.7544    -0.7514    -0.7512 
   -0.7479    -0.7390    -0.7390    -0.7374    -0.7371    -0.7367    -0.7359    -0.7359 
   -0.7324    -0.7321    -0.7254    -0.7095 
 ---------------------------------------
Expectation value of proton 0 : 0.00000000 0.00000000 0.00427849
Protonic dipole moment: 
Dx: 0.0000000 DY: 0.0000000 Dz: 0.0042785 au
Electronic dipole moment: 
Dx: -0.0000000 DY: -0.0000000 Dz: 0.0071850 au
Total dipole moment: 
Dx: -0.0000000 DY: -0.0000000 Dz: 0.0104798 Total 0.0104798 au
Protonic quadrupole moment: 
Qx: 0.0242814 QY: 0.0280031 Qz: 0.0278123 au

Ground-State Mulliken Net Atomic Charges

     Atom                 Charge (a.u.)
  ----------------------------------------
      0                    -0.040304
      1                    0.132017
      2                    0.201490
      3                    0.200824
      4                    0.075607
      5                    -0.045006
      6                    -0.044780
      7                    0.132017
      8                    0.201490
      9                    0.200824
      10                    0.075607
      11                    -0.045006
      12                    -0.044780
----------------------------------------
 Sum of atomic charges =   1.000000
 

        *************************************************************
        *                                                           *
        *         Real-Time NEO TDDFT/Ehrenfest Calculations        *
        *                    Programmed by Tao E. Li                *
        *                                                           *
        *************************************************************

 Real-time simulation will be performed outside cavity!
 Real time propagation threshold is 1.000000e-02
 dt is 1.000000e-01 max_iter is 1.000000e+00
 field amplitude is 0.000000e+00
 field type is 0
 field direction is 3
 Apply hybrid HF/DFT calculation with xc kernel pbe_x and pbe_c
 DFT contribution is 8.000000e-01
 Apply EPC kernel epc172
 ########### ----- Copying info from converged SCF ----- ###########
 Exchange:     0.2000 Hartree-Fock + 0.0800 Slater + 0.7200 B88
 Correlation:  0.1900 VWN1RPA + 0.8100 LYP
 Using SG-1 standard quadrature grid
 By default setting threshold to 1.000000e-12
 Initializing Fock matrix...
 Regenerating fundamental basis
 E-field_direction is expected to have a size of 3 (like [0, 1, 0])
 E-field_direction is expected to have a size of 3 (like [0, 1, 0])
 Trying to build Fock matrix from density matrix...
!## Warning: ECP core pseudopotential is only compatible with fixed nuclei ##!
 End of building Fock matrix from density matrix...
 New SCF energy is -1.626246402542e+03
 Electronic fock matrix (alpha) max diff is 1.623657805427e-13
 Protonic   fock matrix max diff is 1.417468014131e-05
 The incoming field has direction of 
1.000000000000e+00
1.000000000000e+00
1.000000000000e+00
 Electric dipole moment value is    4.4376e-09   3.9099e-15  -7.1850e-03
 Protonic dipole moment value is    4.2259e-11   3.6650e-15   4.2785e-03
coordinates of all nuclei are 
-8.880902670122e-16 -3.401507024988e+00 -7.600478474724e+00 -7.600478474724e+00 -1.215660816208e+01 -1.197519445408e+01 -1.198464308471e+01 3.401507024988e+00 7.600478474724e+00 7.600478474724e+00 1.215660816208e+01 1.197519445408e+01 1.198464308471e+01
1.230958123955e-30 -1.888215708783e-15 -4.219113100402e-15 -4.219113100404e-15 -6.748273141445e-15 -6.647568303646e-15 -6.652813347277e-15 1.888215708783e-15 4.219113100404e-15 4.219113100402e-15 6.748273141445e-15 6.647568303642e-15 6.652813347281e-15
4.090092160945e-03 4.090092160945e-03 2.634588858152e+00 -2.628298399955e+00 4.090092160945e-03 -4.958330712072e+00 4.943834182894e+00 4.090092160945e-03 2.634588858152e+00 -2.628298399955e+00 4.090092160945e-03 -4.958330712072e+00 4.943834182894e+00
 indexes of quantum protons are
        0
 indexes of classical nuclei are
         1
         2
         3
         4
         5
         6
         7
         8
         9
        10
        11
        12
 0-th atom's atomic number is 1
 1-th atom's atomic number is 19
 2-th atom's atomic number is 19
 3-th atom's atomic number is 19
 4-th atom's atomic number is 19
 5-th atom's atomic number is 19
 6-th atom's atomic number is 19
 7-th atom's atomic number is 19
 8-th atom's atomic number is 19
 9-th atom's atomic number is 19
 10-th atom's atomic number is 19
 11-th atom's atomic number is 19
 12-th atom's atomic number is 19
 0-th atom's mass is 1.836152673890e+03
 1-th atom's mass is 7.102649828913e+04
 2-th atom's mass is 7.102649828913e+04
 3-th atom's mass is 7.102649828913e+04
 4-th atom's mass is 7.102649828913e+04
 5-th atom's mass is 7.102649828913e+04
 6-th atom's mass is 7.102649828913e+04
 7-th atom's mass is 7.102649828913e+04
 8-th atom's mass is 7.102649828913e+04
 9-th atom's mass is 7.102649828913e+04
 10-th atom's mass is 7.102649828913e+04
 11-th atom's mass is 7.102649828913e+04
 12-th atom's mass is 7.102649828913e+04
 The mass matrix of all nuclei is
   1.8362e+03   7.1026e+04   7.1026e+04   7.1026e+04   7.1026e+04   7.1026e+04   7.1026e+04   7.1026e+04   7.1026e+04   7.1026e+04   7.1026e+04   7.1026e+04   7.1026e+04
   1.8362e+03   7.1026e+04   7.1026e+04   7.1026e+04   7.1026e+04   7.1026e+04   7.1026e+04   7.1026e+04   7.1026e+04   7.1026e+04   7.1026e+04   7.1026e+04   7.1026e+04
   1.8362e+03   7.1026e+04   7.1026e+04   7.1026e+04   7.1026e+04   7.1026e+04   7.1026e+04   7.1026e+04   7.1026e+04   7.1026e+04   7.1026e+04   7.1026e+04   7.1026e+04
 The shift between the basis function center and proton expectation value is   -4.2260e-11  -3.6650e-15  -1.8839e-04

# Running Restricted Simulation #
In Restricted RT simulation, Rebuild Fock matrix
!## Warning: ECP core pseudopotential is only compatible with fixed nuclei ##!
 In NEO-Eh dt = 1.000000000000e-01
 +++--- Updating basis function center takes 5.869934000000e-02 seconds. ---+++
## OUTPUT TO NGRID = 80 WITH BOUNDARY -1.000000000000e+01 TO 1.000000000000e+01

 ### --- Starting time step No.1 --- ###
 --- Within this time step, building Kohn-Sham matrices No.1 ---
!## Warning: ECP core pseudopotential is only compatible with fixed nuclei ##!
 +++--- Building Fock matrices takes 2.583629314000e+00 seconds. ---+++
 --- Within this time step, building Kohn-Sham matrices No.2 for better convergence ---
!## Warning: ECP core pseudopotential is only compatible with fixed nuclei ##!
 --- Within this time step, building Kohn-Sham matrices No.3 for better convergence ---
!## Warning: ECP core pseudopotential is only compatible with fixed nuclei ##!
 Time step 1 mu_e is -4.441183865111e-09 -2.189516916509e-15 7.184991720577e-03
 Time step 1 mu_n is 4.225913829386e-11 3.565630222074e-15 4.278485623367e-03
 Time step 1 mu_classical is -2.273736754432e-13 -2.524354896707e-29 -9.836930513387e-04
 Time step 1 mu_tot is -4.399152100493e-09 1.376113305564e-15 1.047978429261e-02
 Time step 1 e_tot(electrons+protons) is -1.626246402542e+03
 Time step 1 e_kin(classical) is 0.000000000000e+00
 Time step 1 e_conserved is -1.626246402542e+03
 Time step 1 e_kin(quantum) is 0.000000000000e+00
 Time step 1 e_kin(qmclcross) is 0.000000000000e+00
 Time step 1 e_kin(qmqm) is 0.000000000000e+00
 Time step 1 e_kin(qmqm2) is 0.000000000000e+00
 Time step 1 e_tau is 0.000000000000e+00
 Examining the quality of density matrices by calculating Abs(P - P^dagger)
 Max diff: Displayed in the order of Pe.real,  Pe.imag,  Pn.real,  Pn.imag (less is better)
 Max diff: 2.827175160647e-10 1.579700552311e-09 1.021405182655e-14 8.181010133887e-14
 +++--- Updating quantum densities for one step takes 8.523852643000e+00 seconds. ---+++
 ### Reaching maximal steps, quitting... ###
 Total job time:  486.03s(wall), 13825.26s(cpu) 
 Fri Aug  4 08:42:02 2023

        *************************************************************
        *                                                           *
        *  Thank you very much for using Q-Chem.  Have a nice day.  *
        *                                                           *
        *************************************************************


