                  Welcome to Q-Chem
     A Quantum Leap Into The Future Of Chemistry


 Q-Chem 5.4 (devel), Q-Chem, Inc., Pleasanton, CA (2021)

 E. Epifanovsky,  A. T. B. Gilbert,  Xintian Feng,  Joonho Lee,  Yuezhi Mao,  
 N. Mardirossian,  P. Pokhilko,  A. White,  M. Wormit,  M. P. Coons,  
 A. L. Dempwolff,  Zhengting Gan,  D. Hait,  P. R. Horn,  L. D. Jacobson,  
 I. Kaliman,  J. Kussmann,  A. W. Lange,  Ka Un Lao,  D. S. Levine,  Jie Liu,  
 S. C. McKenzie,  A. F. Morrison,  K. Nanda,  F. Plasser,  D. R. Rehn,  
 M. L. Vidal,  Zhi-Qiang You,  Ying Zhu,  B. Alam,  B. Albrecht,  
 A. Aldossary,  E. Alguire,  J. H. Andersen,  D. Barton,  K. Begam,  A. Behn,  
 Y. A. Bernard,  E. J. Berquist,  H. Burton,  A. Carreras,  K. Carter-Fenk,  
 R. Chakraborty,  A. D. Chien,  K. D. Closser,  V. Cofer-Shabica,  
 S. Dasgupta,  Jia Deng,  M. de Wergifosse,  M. Diedenhofen,  Hainam Do,  
 S. Ehlert,  Po-Tung Fang,  S. Fatehi,  Qingguo Feng,  T. Friedhoff,  
 J. Gayvert,  Qinghui Ge,  G. Gidofalvi,  M. Goldey,  J. Gomes,  
 C. Gonzalez-Espinoza,  S. Gulania,  A. Gunina,  M. W. D. Hanson-Heine,  
 P. H. P. Harbach,  A. W. Hauser,  M. F. Herbst,  M. Hernandez Vera,  
 M. Hodecker,  Z. C. Holden,  S. Houck,  Xunkun Huang,  Kerwin Hui,  
 B. C. Huynh,  M. Ivanov,  Hyunjun Ji,  Hanjie Jiang,  B. Kaduk,  S. Kaehler,  
 K. Khistyaev,  Jaehoon Kim,  P. Klunzinger,  Z. Koczor-Benda,  
 Joong Hoon Koh,  D. Kosenkov,  L. Koulias,  T. Kowalczyk,  C. M. Krauter,  
 K. Kue,  A. Kunitsa,  T. Kus,  A. Landau,  K. V. Lawler,  D. Lefrancois,  
 S. Lehtola,  Rain Li,  Yi-Pei Li,  Jiashu Liang,  M. Liebenthal,  
 Hung-Hsuan Lin,  You-Sheng Lin,  Fenglai Liu,  Kuan-Yu Liu,  
 M. Loipersberger,  A. Luenser,  A. Manjanath,  P. Manohar,  E. Mansoor,  
 S. F. Manzer,  Shan-Ping Mao,  A. V. Marenich,  T. Markovich,  S. Mason,  
 S. A. Maurer,  P. F. McLaughlin,  M. F. S. J. Menger,  J.-M. Mewes,  
 S. A. Mewes,  P. Morgante,  J. W. Mullinax,  K. J. Oosterbaan,  G. Paran,  
 Alexander C. Paul,  Suranjan K. Paul,  F. Pavosevic,  Zheng Pei,  S. Prager,  
 E. I. Proynov,  E. Ramos,  B. Rana,  A. E. Rask,  A. Rettig,  R. M. Richard,  
 F. Rob,  E. Rossomme,  T. Scheele,  M. Scheurer,  M. Schneider,  
 N. Sergueev,  S. M. Sharada,  W. Skomorowski,  D. W. Small,  C. J. Stein,  
 Yu-Chuan Su,  E. J. Sundstrom,  Zhen Tao,  J. Thirman,  T. Tsuchimochi,  
 N. M. Tubman,  S. P. Veccham,  O. Vydrov,  J. Wenzel,  J. Witte,  A. Yamada,  
 Kun Yao,  S. Yeganeh,  S. R. Yost,  A. Zech,  Igor Ying Zhang,  Xing Zhang,  
 Yu Zhang,  D. Zuev,  A. Aspuru-Guzik,  A. T. Bell,  N. A. Besley,  
 K. B. Bravaya,  B. R. Brooks,  D. Casanova,  Jeng-Da Chai,  S. Coriani,  
 C. J. Cramer,  A. E. DePrince, III,  R. A. DiStasio Jr.,  A. Dreuw,  
 B. D. Dunietz,  T. R. Furlani,  W. A. Goddard III,  S. Grimme,  
 S. Hammes-Schiffer,  T. Head-Gordon,  W. J. Hehre,  Chao-Ping Hsu,  
 T.-C. Jagau,  Yousung Jung,  A. Klamt,  Jing Kong,  D. S. Lambrecht,  
 WanZhen Liang,  N. J. Mayhall,  C. W. McCurdy,  J. B. Neaton,  
 C. Ochsenfeld,  J. A. Parkhill,  R. Peverati,  V. A. Rassolov,  Yihan Shao,  
 L. V. Slipchenko,  T. Stauch,  R. P. Steele,  J. E. Subotnik,  
 A. J. W. Thom,  A. Tkatchenko,  D. G. Truhlar,  T. Van Voorhis,  
 T. A. Wesolowski,  K. B. Whaley,  H. L. Woodcock III,  P. M. Zimmerman,  
 S. Faraji,  P. M. W. Gill,  M. Head-Gordon,  J. M. Herbert,  A. I. Krylov

 Additional authors for Version 5.4.1: 
 S. Kotaru,  Shaozhi Li,  Xiangyuan Li,  F. Matz,  A. Molle,  Haisheng Ren,  
 Yingli Su,  Hung-Yi Tsai,  C. Utku,  Fang Wang

 Contributors to earlier versions of Q-Chem not listed above: 
 R. D. Adamson,  B. Austin,  R. Baer,  J. Baker,  G. J. O. Beran,  
 K. Brandhorst,  S. T. Brown,  E. F. C. Byrd,  A. K. Chakraborty,  
 G. K. L. Chan,  Chun-Min Chang,  Yunqing Chen,  C.-L. Cheng,  
 Siu Hung Chien,  D. M. Chipman,  D. L. Crittenden,  H. Dachsel,  
 R. J. Doerksen,  A. D. Dutoi,  R. G. Edgar,  J. Fosso-Tande,  
 L. Fusti-Molnar,  D. Ghosh,  A. Ghysels,  A. Golubeva-Zadorozhnaya,  
 J. Gonthier,  M. S. Gordon,  S. R. Gwaltney,  G. Hawkins,  J. E. Herr,  
 A. Heyden,  S. Hirata,  E. G. Hohenstein,  G. Kedziora,  F. J. Keil,  
 C. Kelley,  Jihan Kim,  R. A. King,  R. Z. Khaliullin,  P. P. Korambath,  
 W. Kurlancheek,  A. Laurent,  A. M. Lee,  M. S. Lee,  S. V. Levchenko,  
 Ching Yeh Lin,  D. Liotard,  E. Livshits,  R. C. Lochan,  I. Lotan,  
 L. A. Martinez-Martinez,  P. E. Maslen,  N. Nair,  D. P. O'Neill,  
 D. Neuhauser,  E. Neuscamman,  C. M. Oana,  R. Olivares-Amaya,  R. Olson,  
 T. M. Perrine,  B. Peters,  P. A. Pieniazek,  A. Prociuk,  Y. M. Rhee,  
 J. Ritchie,  M. A. Rohrdanz,  E. Rosta,  N. J. Russ,  H. F. Schaefer III,  
 M. W. Schmidt,  N. E. Schultz,  S. Sharma,  N. Shenvi,  C. D. Sherrill,  
 A. C. Simmonett,  A. Sodt,  T. Stein,  D. Stuck,  K. S. Thanthiriwatte,  
 V. Vanovschi,  L. Vogt,  Tao Wang,  A. Warshel,  M. A. Watson,  
 C. F. Williams,  Q. Wu,  X. Xu,  Jun Yang,  W. Zhang,  Yan Zhao

 Please cite Q-Chem as follows:
 Y. Shao et al., Mol. Phys. 113, 184-215 (2015)
 DOI: 10.1080/00268976.2014.952696

 Q-Chem 5.4.1 for Intel X86 EM64T Linux

 Parts of Q-Chem use Armadillo 9.900.5 (Nocturnal Misbehaviour).
 http://arma.sourceforge.net/

 Q-Chem begins on Mon Aug 21 15:40:58 2023  

 Host: r914u13n04.grace.ycrc.yale.edu
0

     Scratch files written to /home/tl686/palmer_scratch/qchem_dev/scratch/qchem675300//
 Processing $rem in /home/tl686/qchem_dev/qchem/config/preferences:
 Processing $rem in /home/tl686/.qchemrc:

 Checking the input file for inconsistencies... 	...done.

--------------------------------------------------------------
User input:
--------------------------------------------------------------
$molecule
+1 1
H      0.000000    0.000000    4.522
Au     0.000000    0.000000    2.222000
Au    -1.392000    0.000000    0.000000
Au     1.393000    0.000000    0.000000
Au     0.000000    0.000000   -2.411000
Au     2.626000    0.000000   -2.315000
Au    -2.614000    0.000000   -2.320000
Au     0.000000    0.000000    6.821999999999999
Au    -1.392000    0.000000    9.043999999999999
Au     1.393000    0.000000    9.043999999999999
Au     0.000000    0.000000    11.454999999999998
Au     2.626000    0.000000    11.358999999999998
Au    -2.614000    0.000000    11.363999999999999
$end
$rem
jobtype = sp
sym_ignore = false
input_bohr = false
method = b3lyp
SCF_ALGORITHM = GDM
MAX_SCF_CYCLES=500
SCF_CONVERGENCE = 8
MEM_TOTAL = 100000 
ECP = fit-LANL2DZ
basis = general
IANLTY     200
ESP_GRID     -1
$end


$basis
   H 0
   def2-qzvp
   ****
   Au 0
   LANL2DZ
   ****
$end

$plots
   plot the electrostatic potential on a line
   14001   -7.0   7.0
   1   0.0   0.0
   1   0.0   0.0
   0  0  0  0
   0
$end
--------------------------------------------------------------
 ----------------------------------------------------------------
             Standard Nuclear Orientation (Angstroms)
    I     Atom           X                Y                Z
 ----------------------------------------------------------------
    1      H      -0.0000000000     0.0000000000     0.0021643836
    2      Au     -2.3000000000    -0.0000000000     0.0021643836
    3      Au     -4.5220000000    -0.0000000000     1.3941643836
    4      Au     -4.5220000000    -0.0000000000    -1.3908356164
    5      Au     -6.9330000000    -0.0000000000     0.0021643836
    6      Au     -6.8370000000    -0.0000000000    -2.6238356164
    7      Au     -6.8420000000    -0.0000000000     2.6161643836
    8      Au      2.3000000000     0.0000000000     0.0021643836
    9      Au      4.5220000000     0.0000000000     1.3941643836
   10      Au      4.5220000000     0.0000000000    -1.3908356164
   11      Au      6.9330000000     0.0000000000     0.0021643836
   12      Au      6.8370000000     0.0000000000    -2.6238356164
   13      Au      6.8420000000     0.0000000000     2.6161643836
 ----------------------------------------------------------------
 Molecular Point Group                 C2v   NOp =  4
 Largest Abelian Subgroup              C2v   NOp =  4
 Nuclear Repulsion Energy =        2452.03733971 hartrees
 There are      114 alpha and      114 beta electrons
 Requested basis set is non-standard
 There are 106 shells and 294 basis functions

 Total QAlloc Memory Limit 100000 MB
 Mega-Array Size       188 MB
 MEM_STATIC part       192 MB

                       Distance Matrix (Angstroms)
             H (  1)   Au(  2)   Au(  3)   Au(  4)   Au(  5)   Au(  6)
   Au(  2)  2.300000
   Au(  3)  4.731400  2.622012
   Au(  4)  4.731695  2.622543  2.785000
   Au(  5)  6.933000  4.633000  2.783987  2.784487
   Au(  6)  7.323964  5.242160  4.637192  2.622883  2.627754
   Au(  7)  7.324340  5.240492  2.622153  4.630167  2.615583  5.240002
   Au(  8)  2.300000  4.600000  6.962568  6.962768  9.233000  9.506874
   Au(  9)  4.731400  6.962568  9.044000  9.463095 11.539267 12.048701
   Au( 10)  4.731695  6.962768  9.463095  9.044000 11.539388 11.425724
   Au( 11)  6.933000  9.233000 11.539267 11.539388 13.866000 14.018159
   Au( 12)  7.323964  9.506874 12.048701 11.425724 14.018159 13.674000
   Au( 13)  7.324340  9.508373 11.429514 12.049753 14.020828 14.648298
             Au(  7)   Au(  8)   Au(  9)   Au( 10)   Au( 11)   Au( 12)
   Au(  8)  9.508373
   Au(  9) 11.429514  2.622012
   Au( 10) 12.049753  2.622543  2.785000
   Au( 11) 14.020828  4.633000  2.783987  2.784487
   Au( 12) 14.648298  5.242160  4.637192  2.622883  2.627754
   Au( 13) 13.684000  5.240492  2.622153  4.630167  2.615583  5.240002


 A cutoff of  1.0D-12 yielded   4075 shell pairs
 There are     31055 function pairs (     37154 Cartesian)
 Requested basis set is non-standard
 Compound shells will be simplified
 There are 106 shells and 294 basis functions
 A cutoff of  1.0D-12 yielded   4075 shell pairs
 There are     31055 function pairs (     37154 Cartesian)
 Smallest overlap matrix eigenvalue = 4.57E-04

 Scale SEOQF with 1.000000e-02/1.000000e-01/1.000000e-01

 Standard Electronic Orientation quadrupole field applied
 Nucleus-field energy     =    -0.0000000462 hartrees
 ================ Generating on-the-fly SAD Guess ================
Attempting to make child job directory: /home/tl686/palmer_scratch/qchem_dev/scratch/qchem675300//Frg1/
Attempting to make child job directory: /home/tl686/palmer_scratch/qchem_dev/scratch/qchem675300//Frg2/
Creating input file /home/tl686/palmer_scratch/qchem_dev/scratch/qchem675300/Frg1.input
using default PutDataFrgm: nothing
calling putenv with: QCSCRATCH=/home/tl686/palmer_scratch/qchem_dev/scratch/qchem675300/ 
Spawning Job For Fragment 0
Done Job For Fragment 0
calling putenv with: QCSCRATCH=/home/tl686/palmer_scratch/qchem_dev/scratch 
calling putenv with: QCTHREADS=32 
Creating input file /home/tl686/palmer_scratch/qchem_dev/scratch/qchem675300/Frg2.input
using default PutDataFrgm: nothing
calling putenv with: QCSCRATCH=/home/tl686/palmer_scratch/qchem_dev/scratch/qchem675300/ 
Spawning Job For Fragment 1
Done Job For Fragment 1
calling putenv with: QCSCRATCH=/home/tl686/palmer_scratch/qchem_dev/scratch 
calling putenv with: QCTHREADS=32 
 Time for running child jobs:  CPU 0.00 s  wall 2.87 s
 ============= Method Specific SAD Guess Constructed =============
 Guess from on-the-fly superposition of atomic densities
 Warning: Energy on first SCF cycle will be non-variational

 -----------------------------------------------------------------------
  General SCF calculation program by
  Eric Jon Sundstrom, Paul Horn, Yuezhi Mao, Dmitri Zuev, Alec White,
  David Stuck, Shaama M.S., Shane Yost, Joonho Lee, David Small,
  Daniel Levine, Susi Lehtola, Hugh Burton, Evgeny Epifanovsky,
  Bang C. Huynh
 -----------------------------------------------------------------------
 Exchange:     0.2000 Hartree-Fock + 0.0800 Slater + 0.7200 B88
 Correlation:  0.1900 VWN1RPA + 0.8100 LYP
 Using SG-1 standard quadrature grid
 using 32 threads for integral computing
 -------------------------------------------------------
 OpenMP Integral computing Module                
 Release: version 1.0, May 2013, Q-Chem Inc. Pittsburgh 
 -------------------------------------------------------
 A restricted SCF calculation will be
 performed using Roothaan-Hall, GDM
 SCF converges when RMS gradient is below 1.0e-08
 ---------------------------------------
  Cycle       Energy         DIIS error
 ---------------------------------------
    1   -1627.9612957487      1.59e-02  Roothaan Step
 ---------------------------------------
  Cycle       Energy        RMS Gradient
 ---------------------------------------
    1   -1626.1568276105      5.68e-02   Normal BFGS step
    2   -1626.1182606644      2.30e-01  Line search: overstep
    3   -1626.1945292533      3.08e-02   Normal BFGS step
    4   -1626.1888972976      9.44e-02  Line search: overstep
    5   -1626.1979525382      1.13e-02   Normal BFGS step
    6   -1626.1984168520      1.40e-02   Normal BFGS step
    7   -1626.1990235022      4.47e-03   Normal BFGS step
    8   -1626.1991961386      1.59e-03   Normal BFGS step
    9   -1626.1992448352      1.22e-03   Normal BFGS step
   10   -1626.1992590145      6.88e-04   Normal BFGS step
   11   -1626.1992661744      3.74e-04   Normal BFGS step
   12   -1626.1992666488      5.04e-04   Normal BFGS step
   13   -1626.1992673090      1.11e-04   Normal BFGS step
   14   -1626.1992673914      7.20e-05   Normal BFGS step
   15   -1626.1992674015      6.79e-05   Normal BFGS step
   16   -1626.1992674265      1.55e-05   Normal BFGS step
   17   -1626.1992674307      4.23e-06   Normal BFGS step
   18   -1626.1992674312      8.70e-07   Normal BFGS step
   19   -1626.1992674313      8.01e-07   Normal BFGS step
   20   -1626.1992674312      6.19e-07   Normal BFGS step
   21   -1626.1992674313      1.58e-07   Normal BFGS step
   22   -1626.1992674313      4.22e-08   Normal BFGS step
   23   -1626.1992674315      7.93e-08   Normal BFGS step
   24   -1626.1992674317      8.07e-08   Normal BFGS step
  GDM::WARNING energy changes are now smaller than effective accuracy.
  GDM::        calculation will continue, but THRESH should be increased
  GDM::        or SCF_CONVERGENCE decreased. 
  GDM::        effective_thresh = 2.96e-09
   25   -1626.1992674316      1.25e-08   Normal BFGS step
   26   -1626.1992674319      1.46e-08   Normal BFGS step
  GDM::WARNING energy changes are now smaller than effective accuracy.
  GDM::        calculation will continue, but THRESH should be increased
  GDM::        or SCF_CONVERGENCE decreased. 
  GDM::        effective_thresh = 3.53e-09
   27   -1626.1992674311      4.35e-09  Convergence criterion met
 ---------------------------------------
 SCF time:   CPU 257.77s  wall 11.00s 
 SCF   energy in the final basis set =    -1626.1992674311
 Total energy in the final basis set =    -1626.1992674311

 --------------------------------------------------------------
             Orbital Energies (a.u.) and Symmetries
 --------------------------------------------------------------

 Alpha MOs, Restricted
 -- Occupied --                  
 -4.296  -4.296  -4.292  -4.292  -4.291  -4.291  -4.290  -4.290
  1 B1    1 A1    2 A1    2 B1    3 B1    3 A1    4 A1    4 B1                 
 -4.276  -4.276  -4.276  -4.276  -2.438  -2.438  -2.437  -2.437
  5 B1    5 A1    6 B1    6 A1    7 B1    7 A1    8 B1    8 A1                 
 -2.433  -2.433  -2.431  -2.431  -2.428  -2.428  -2.425  -2.425
  9 A1    9 B1   10 B1   10 A1   11 B1   11 A1   12 B1   12 A1                 
 -2.422  -2.422  -2.422  -2.422  -2.419  -2.419  -2.416  -2.416
 13 B1   13 A1   14 B1   14 A1    1 B2    1 A2    2 A2    2 B2                 
 -2.415  -2.415  -2.415  -2.415  -2.414  -2.414  -2.413  -2.413
  3 A2    3 B2   15 B1   15 A1   16 A1   16 B1    4 B2    4 A2                 
 -2.409  -2.409  -2.409  -2.409  -2.401  -2.401  -2.401  -2.401
 17 B1   17 A1   18 B1   18 A1    5 B2    5 A2    6 B2    6 A2                 
 -0.546  -0.542  -0.530  -0.529  -0.529  -0.528  -0.504  -0.504
 19 A1   19 B1   20 A1   21 A1   20 B1   21 B1   22 B1   22 A1                 
 -0.488  -0.488  -0.486  -0.486  -0.480  -0.480  -0.478  -0.478
 23 A1   23 B1   24 A1   24 B1    7 B2    7 A2    8 B2    8 A2                 
 -0.465  -0.465  -0.457  -0.451  -0.451  -0.450  -0.450  -0.434
  9 B2    9 A2   25 A1   10 B2   10 A2   26 A1   25 B1   26 B1                 
 -0.434  -0.432  -0.431  -0.430  -0.430  -0.430  -0.428  -0.428
 27 A1   27 B1   11 B2   11 A2   28 A1   28 B1   12 B2   12 A2                 
 -0.426  -0.426  -0.426  -0.425  -0.421  -0.421  -0.421  -0.420
 29 A1   13 B2   13 A2   29 B1   30 B1   30 A1   31 A1   31 B1                 
 -0.414  -0.414  -0.414  -0.414  -0.410  -0.409  -0.406  -0.406
 14 B2   14 A2   15 B2   15 A2   32 A1   32 B1   33 B1   33 A1                 
 -0.402  -0.402  -0.398  -0.397  -0.397  -0.397  -0.396  -0.396
 34 A1   34 B1   16 B2   35 A1   16 A2   35 B1   17 B2   17 A2                 
 -0.395  -0.395  -0.392  -0.386  -0.385  -0.385  -0.384  -0.359
 18 B2   18 A2   36 A1   36 B1   37 A1   37 B1   38 A1   39 A1                 
 -0.359  -0.354
 38 B1   39 B1                                                                 
 -- Virtual --                   
 -0.313  -0.218  -0.218  -0.217  -0.216  -0.213  -0.177  -0.163
 40 A1   40 B1   41 A1   42 A1   41 B1   42 B1   43 A1   19 B2                 
 -0.161  -0.124  -0.120  -0.109  -0.108  -0.100  -0.100  -0.098
 19 A2   44 A1   43 B1   20 B2   44 B1   21 B2   20 A2   45 A1                 
 -0.098  -0.097  -0.093  -0.088  -0.060  -0.044  -0.037  -0.032
 46 A1   21 A2   45 B1   46 B1   47 A1   22 B2   48 A1   23 B2                 
 -0.031  -0.031  -0.028  -0.028  -0.027  -0.023  -0.019  -0.019
 22 A2   24 B2   23 A2   47 B1   49 A1   50 A1   48 B1   51 A1                 
 -0.017  -0.016  -0.015  -0.013   0.003   0.004   0.008   0.012
 49 B1   24 A2   50 B1   51 B1   52 A1   52 B1   53 A1   25 B2                 
  0.014   0.014   0.017   0.019   0.025   0.027   0.028   0.029
 53 B1   25 A2   54 A1   55 A1   54 B1   56 A1   55 B1   57 A1                 
  0.034   0.035   0.039   0.041   0.051   0.056   0.068   0.081
 56 B1   26 B2   27 B2   26 A2   27 A2   57 B1   58 A1   28 B2                 
  0.082   0.083   0.089   0.089   0.101   0.106   0.108   0.110
 29 B2   28 A2   29 A2   30 B2   59 A1   60 A1   58 B1   30 A2                 
  0.110   0.123   0.135   0.140   0.141   0.166   0.166   0.170
 59 B1   60 B1   61 A1   62 A1   61 B1   62 B1   63 B1   63 A1                 
  0.172   0.232   0.239   0.248   0.264   0.266   0.267   0.269
 64 A1   31 B2   65 A1   66 A1   32 B2   31 A2   64 B1   33 B2                 
  0.269   0.272   0.272   0.276   0.276   0.278   0.284   0.287
 32 A2   34 B2   33 A2   65 B1   67 A1   68 A1   34 A2   66 B1                 
  0.289   0.315   0.318   0.337   0.350   0.354   0.355   0.357
 69 A1   67 B1   35 B2   70 A1   68 B1   36 B2   69 B1   71 A1                 
  0.358   0.359   0.364   0.366   0.382   0.382   0.395   0.411
 35 A2   36 A2   37 B2   72 A1   37 A2   70 B1   73 A1   71 B1                 
  0.412   0.416   0.422   0.428   0.428   0.430   0.431   0.442
 38 B2   72 B1   74 A1   73 B1   39 B2   38 A2   39 A2   75 A1                 
  0.450   0.484   0.484   0.485   0.489   0.490   0.513   0.517
 76 A1   74 B1   40 B2   77 A1   75 B1   78 A1   41 B2   40 A2                 
  0.523   0.533   0.534   0.536   0.548   0.549   0.556   0.558
 76 B1   79 A1   77 B1   78 B1   42 B2   41 A2   80 A1   81 A1                 
  0.563   0.568   0.569   0.615   0.617   0.668   0.678   0.679
 42 A2   79 B1   80 B1   82 A1   83 A1   43 B2   81 B1   82 B1                 
  0.690   0.766   0.779   0.815   0.819   0.852   0.853   1.116
 84 A1   83 B1   85 A1   84 B1   86 A1   87 A1   85 B1   88 A1                 
  1.777   1.780   1.870   1.947   1.999   2.163   2.194   2.418
 44 B2   89 A1   43 A2   86 B1   90 A1   45 B2   91 A1   87 B1                 
  4.691   4.904   5.070   5.652   5.662   5.666   5.666   5.672
 88 B1   92 A1   93 A1   89 B1   46 B2   90 B1   44 A2   94 A1                 
  5.677   5.677   6.134   6.716   6.811   6.823   7.406   7.428
 47 B2   95 A1   96 A1   91 B1   97 A1   92 B1   48 B2   98 A1                 
  7.511   7.677   7.685   7.690   7.753   7.787   7.815   8.933
 93 B1   94 B1   99 A1   49 B2   45 A2   95 B1  100 A1  101 A1                 
  9.089   9.875   9.937  10.318
102 A1   96 B1   97 B1  103 A1                                                 

 Beta MOs, Restricted
 -- Occupied --                  
 -4.296  -4.296  -4.292  -4.292  -4.291  -4.291  -4.290  -4.290
  1 B1    1 A1    2 A1    2 B1    3 B1    3 A1    4 A1    4 B1                 
 -4.276  -4.276  -4.276  -4.276  -2.438  -2.438  -2.437  -2.437
  5 B1    5 A1    6 B1    6 A1    7 B1    7 A1    8 B1    8 A1                 
 -2.433  -2.433  -2.431  -2.431  -2.428  -2.428  -2.425  -2.425
  9 A1    9 B1   10 B1   10 A1   11 B1   11 A1   12 B1   12 A1                 
 -2.422  -2.422  -2.422  -2.422  -2.419  -2.419  -2.416  -2.416
 13 B1   13 A1   14 B1   14 A1    1 B2    1 A2    2 A2    2 B2                 
 -2.415  -2.415  -2.415  -2.415  -2.414  -2.414  -2.413  -2.413
  3 A2    3 B2   15 B1   15 A1   16 A1   16 B1    4 B2    4 A2                 
 -2.409  -2.409  -2.409  -2.409  -2.401  -2.401  -2.401  -2.401
 17 B1   17 A1   18 B1   18 A1    5 B2    5 A2    6 B2    6 A2                 
 -0.546  -0.542  -0.530  -0.529  -0.529  -0.528  -0.504  -0.504
 19 A1   19 B1   20 A1   21 A1   20 B1   21 B1   22 B1   22 A1                 
 -0.488  -0.488  -0.486  -0.486  -0.480  -0.480  -0.478  -0.478
 23 A1   23 B1   24 A1   24 B1    7 B2    7 A2    8 B2    8 A2                 
 -0.465  -0.465  -0.457  -0.451  -0.451  -0.450  -0.450  -0.434
  9 B2    9 A2   25 A1   10 B2   10 A2   26 A1   25 B1   26 B1                 
 -0.434  -0.432  -0.431  -0.430  -0.430  -0.430  -0.428  -0.428
 27 A1   27 B1   11 B2   11 A2   28 A1   28 B1   12 B2   12 A2                 
 -0.426  -0.426  -0.426  -0.425  -0.421  -0.421  -0.421  -0.420
 29 A1   13 B2   13 A2   29 B1   30 B1   30 A1   31 A1   31 B1                 
 -0.414  -0.414  -0.414  -0.414  -0.410  -0.409  -0.406  -0.406
 14 B2   14 A2   15 B2   15 A2   32 A1   32 B1   33 B1   33 A1                 
 -0.402  -0.402  -0.398  -0.397  -0.397  -0.397  -0.396  -0.396
 34 A1   34 B1   16 B2   35 A1   16 A2   35 B1   17 B2   17 A2                 
 -0.395  -0.395  -0.392  -0.386  -0.385  -0.385  -0.384  -0.359
 18 B2   18 A2   36 A1   36 B1   37 A1   37 B1   38 A1   39 A1                 
 -0.359  -0.354
 38 B1   39 B1                                                                 
 -- Virtual --                   
 -0.313  -0.218  -0.218  -0.217  -0.216  -0.213  -0.177  -0.163
 40 A1   40 B1   41 A1   42 A1   41 B1   42 B1   43 A1   19 B2                 
 -0.161  -0.124  -0.120  -0.109  -0.108  -0.100  -0.100  -0.098
 19 A2   44 A1   43 B1   20 B2   44 B1   21 B2   20 A2   45 A1                 
 -0.098  -0.097  -0.093  -0.088  -0.060  -0.044  -0.037  -0.032
 46 A1   21 A2   45 B1   46 B1   47 A1   22 B2   48 A1   23 B2                 
 -0.031  -0.031  -0.028  -0.028  -0.027  -0.023  -0.019  -0.019
 22 A2   24 B2   23 A2   47 B1   49 A1   50 A1   48 B1   51 A1                 
 -0.017  -0.016  -0.015  -0.013   0.003   0.004   0.008   0.012
 49 B1   24 A2   50 B1   51 B1   52 A1   52 B1   53 A1   25 B2                 
  0.014   0.014   0.017   0.019   0.025   0.027   0.028   0.029
 53 B1   25 A2   54 A1   55 A1   54 B1   56 A1   55 B1   57 A1                 
  0.034   0.035   0.039   0.041   0.051   0.056   0.068   0.081
 56 B1   26 B2   27 B2   26 A2   27 A2   57 B1   58 A1   28 B2                 
  0.082   0.083   0.089   0.089   0.101   0.106   0.108   0.110
 29 B2   28 A2   29 A2   30 B2   59 A1   60 A1   58 B1   30 A2                 
  0.110   0.123   0.135   0.140   0.141   0.166   0.166   0.170
 59 B1   60 B1   61 A1   62 A1   61 B1   62 B1   63 B1   63 A1                 
  0.172   0.232   0.239   0.248   0.264   0.266   0.267   0.269
 64 A1   31 B2   65 A1   66 A1   32 B2   31 A2   64 B1   33 B2                 
  0.269   0.272   0.272   0.276   0.276   0.278   0.284   0.287
 32 A2   34 B2   33 A2   65 B1   67 A1   68 A1   34 A2   66 B1                 
  0.289   0.315   0.318   0.337   0.350   0.354   0.355   0.357
 69 A1   67 B1   35 B2   70 A1   68 B1   36 B2   69 B1   71 A1                 
  0.358   0.359   0.364   0.366   0.382   0.382   0.395   0.411
 35 A2   36 A2   37 B2   72 A1   37 A2   70 B1   73 A1   71 B1                 
  0.412   0.416   0.422   0.428   0.428   0.430   0.431   0.442
 38 B2   72 B1   74 A1   73 B1   39 B2   38 A2   39 A2   75 A1                 
  0.450   0.484   0.484   0.485   0.489   0.490   0.513   0.517
 76 A1   74 B1   40 B2   77 A1   75 B1   78 A1   41 B2   40 A2                 
  0.523   0.533   0.534   0.536   0.548   0.549   0.556   0.558
 76 B1   79 A1   77 B1   78 B1   42 B2   41 A2   80 A1   81 A1                 
  0.563   0.568   0.569   0.615   0.617   0.668   0.678   0.679
 42 A2   79 B1   80 B1   82 A1   83 A1   43 B2   81 B1   82 B1                 
  0.690   0.766   0.779   0.815   0.819   0.852   0.853   1.116
 84 A1   83 B1   85 A1   84 B1   86 A1   87 A1   85 B1   88 A1                 
  1.777   1.780   1.870   1.947   1.999   2.163   2.194   2.418
 44 B2   89 A1   43 A2   86 B1   90 A1   45 B2   91 A1   87 B1                 
  4.691   4.904   5.070   5.652   5.662   5.666   5.666   5.672
 88 B1   92 A1   93 A1   89 B1   46 B2   90 B1   44 A2   94 A1                 
  5.677   5.677   6.134   6.716   6.811   6.823   7.406   7.428
 47 B2   95 A1   96 A1   91 B1   97 A1   92 B1   48 B2   98 A1                 
  7.511   7.677   7.685   7.690   7.753   7.787   7.815   8.933
 93 B1   94 B1   99 A1   49 B2   45 A2   95 B1  100 A1  101 A1                 
  9.089   9.875   9.937  10.318
102 A1   96 B1   97 B1  103 A1                                                 
 --------------------------------------------------------------

          Ground-State Mulliken Net Atomic Charges

     Atom                 Charge (a.u.)
  ----------------------------------------
      1 H                     0.287104
      2 Au                   -0.026423
      3 Au                    0.158442
      4 Au                    0.157832
      5 Au                    0.126162
      6 Au                   -0.029837
      7 Au                   -0.029727
      8 Au                   -0.026423
      9 Au                    0.158442
     10 Au                    0.157832
     11 Au                    0.126162
     12 Au                   -0.029837
     13 Au                   -0.029727
  ----------------------------------------
  Sum of atomic charges =     1.000000

 -----------------------------------------------------------------
                    Cartesian Multipole Moments
 -----------------------------------------------------------------
    Charge (ESU x 10^10)
                 4.8032
    Dipole Moment (Debye)
         X       0.0000000047      Y       0.0000000000      Z       0.0250991645
       Tot       0.0250991645
    Quadrupole Moments (Debye-Ang)
        XX     -62.9654     XY       0.0000     YY    -279.0876
        XZ       0.0000     YZ      -0.0000     ZZ    -232.4859
    Octopole Moments (Debye-Ang^2)
       XXX       0.0000    XXY      -0.0000    XYY      -0.0000
       YYY       0.0000    XXZ       0.9553    XYZ      -0.0000
       YYZ       0.0162    XZZ      -0.0000    YZZ      -0.0000
       ZZZ      -0.1312
    Hexadecapole Moments (Debye-Ang^3)
      XXXX  -39636.2122   XXXY       0.0000   XXYY   -8756.8846
      XYYY      -0.0000   YYYY    -337.6884   XXXZ      -0.0000
      XXYZ      -0.0000   XYYZ      -0.0000   YYYZ      -0.0000
      XXZZ   -7280.9566   XYZZ      -0.0000   YYZZ    -905.5075
      XZZZ      -0.0000   YZZZ      -0.0000   ZZZZ   -4543.0776
 -----------------------------------------------------------------
 Electrostatic potential will be computed using the SCF density
   ... ESP will be evaluated on the $plots plotting cube.
 ESP points per batch =         5000
   ... The data will be saved in the file plot.esp
  --- DONE ESP SUMMARY ---
 Total job time:  17.73s(wall), 270.92s(cpu) 
 Mon Aug 21 15:41:16 2023

        *************************************************************
        *                                                           *
        *  Thank you very much for using Q-Chem.  Have a nice day.  *
        *                                                           *
        *************************************************************


