======= MOLECULAR ORBITALS IN MOLDEN FORMAT =======
[Molden Format]
[Atoms] (Angs)
 Al      1   13     -0.00762624     -0.05943442     -0.06124874
 Al      2   13      0.11010472      0.03908581      2.60166747
 Al      3   13      2.29700777      0.25482281     -1.36865333
 Al      4   13      1.74007381      1.65796513      0.99189669
 Al      5   13     -0.34108757     -2.36742041      1.23640428
 Al      6   13      1.01441327     -2.23505730     -1.21975708
 Al      7   13     -2.31168199     -0.37228480      1.24655335
 Al      8   13     -0.12309611     -0.15674590     -2.72429760
 Al      9   13     -1.74990485     -1.78269843     -1.11365734
 Al     10   13     -1.02746244      2.11661869      1.09584549
 Al     11   13      0.32224853      2.24981060     -1.35628815
 Al     12   13      2.16167525     -1.11799264      1.07524852
 Al     13   13     -2.17967297      0.98973524     -1.19989045
  H     14    1      5.41119856      0.55120337      1.62666841
  H     15    1      6.12441026      0.59249225      1.86390849
[GTO]
1    0
S    6    1.000000
   1.39831000E+04    1.94267000E-03 
   2.09875000E+03    1.48599000E-02 
   4.77705000E+02    7.28494000E-02 
   1.34360000E+02    2.46830000E-01 
   4.28709000E+01    4.87258000E-01 
   1.45189000E+01    3.23496000E-01 
SP   6    1.000000
   2.39668000E+02   -2.92619000E-03   4.60285000E-03 
   5.74419000E+01   -3.74080000E-02   3.31990000E-02 
   1.82859000E+01   -1.14487000E-01   1.36282000E-01 
   6.59914000E+00    1.15635000E-01   3.30476000E-01 
   2.49049000E+00    6.12595000E-01   4.49146000E-01 
   9.44540000E-01    3.93799000E-01   2.65704000E-01 
SP   3    1.000000
   1.27790000E+00   -2.27606000E-01  -1.75130000E-02 
   3.97590000E-01    1.44583000E-03   2.44533000E-01 
   1.60095000E-01    1.09279000E+00   8.04934000E-01 
SP   1    1.000000
   5.56577000E-02    1.00000000E+00   1.00000000E+00 
D    1    1.000000
   3.25000000E-01    1.00000000E+00 

2    0
S    6    1.000000
   1.39831000E+04    1.94267000E-03 
   2.09875000E+03    1.48599000E-02 
   4.77705000E+02    7.28494000E-02 
   1.34360000E+02    2.46830000E-01 
   4.28709000E+01    4.87258000E-01 
   1.45189000E+01    3.23496000E-01 
SP   6    1.000000
   2.39668000E+02   -2.92619000E-03   4.60285000E-03 
   5.74419000E+01   -3.74080000E-02   3.31990000E-02 
   1.82859000E+01   -1.14487000E-01   1.36282000E-01 
   6.59914000E+00    1.15635000E-01   3.30476000E-01 
   2.49049000E+00    6.12595000E-01   4.49146000E-01 
   9.44540000E-01    3.93799000E-01   2.65704000E-01 
SP   3    1.000000
   1.27790000E+00   -2.27606000E-01  -1.75130000E-02 
   3.97590000E-01    1.44583000E-03   2.44533000E-01 
   1.60095000E-01    1.09279000E+00   8.04934000E-01 
SP   1    1.000000
   5.56577000E-02    1.00000000E+00   1.00000000E+00 
D    1    1.000000
   3.25000000E-01    1.00000000E+00 

3    0
S    6    1.000000
   1.39831000E+04    1.94267000E-03 
   2.09875000E+03    1.48599000E-02 
   4.77705000E+02    7.28494000E-02 
   1.34360000E+02    2.46830000E-01 
   4.28709000E+01    4.87258000E-01 
   1.45189000E+01    3.23496000E-01 
SP   6    1.000000
   2.39668000E+02   -2.92619000E-03   4.60285000E-03 
   5.74419000E+01   -3.74080000E-02   3.31990000E-02 
   1.82859000E+01   -1.14487000E-01   1.36282000E-01 
   6.59914000E+00    1.15635000E-01   3.30476000E-01 
   2.49049000E+00    6.12595000E-01   4.49146000E-01 
   9.44540000E-01    3.93799000E-01   2.65704000E-01 
SP   3    1.000000
   1.27790000E+00   -2.27606000E-01  -1.75130000E-02 
   3.97590000E-01    1.44583000E-03   2.44533000E-01 
   1.60095000E-01    1.09279000E+00   8.04934000E-01 
SP   1    1.000000
   5.56577000E-02    1.00000000E+00   1.00000000E+00 
D    1    1.000000
   3.25000000E-01    1.00000000E+00 

4    0
S    6    1.000000
   1.39831000E+04    1.94267000E-03 
   2.09875000E+03    1.48599000E-02 
   4.77705000E+02    7.28494000E-02 
   1.34360000E+02    2.46830000E-01 
   4.28709000E+01    4.87258000E-01 
   1.45189000E+01    3.23496000E-01 
SP   6    1.000000
   2.39668000E+02   -2.92619000E-03   4.60285000E-03 
   5.74419000E+01   -3.74080000E-02   3.31990000E-02 
   1.82859000E+01   -1.14487000E-01   1.36282000E-01 
   6.59914000E+00    1.15635000E-01   3.30476000E-01 
   2.49049000E+00    6.12595000E-01   4.49146000E-01 
   9.44540000E-01    3.93799000E-01   2.65704000E-01 
SP   3    1.000000
   1.27790000E+00   -2.27606000E-01  -1.75130000E-02 
   3.97590000E-01    1.44583000E-03   2.44533000E-01 
   1.60095000E-01    1.09279000E+00   8.04934000E-01 
SP   1    1.000000
   5.56577000E-02    1.00000000E+00   1.00000000E+00 
D    1    1.000000
   3.25000000E-01    1.00000000E+00 

5    0
S    6    1.000000
   1.39831000E+04    1.94267000E-03 
   2.09875000E+03    1.48599000E-02 
   4.77705000E+02    7.28494000E-02 
   1.34360000E+02    2.46830000E-01 
   4.28709000E+01    4.87258000E-01 
   1.45189000E+01    3.23496000E-01 
SP   6    1.000000
   2.39668000E+02   -2.92619000E-03   4.60285000E-03 
   5.74419000E+01   -3.74080000E-02   3.31990000E-02 
   1.82859000E+01   -1.14487000E-01   1.36282000E-01 
   6.59914000E+00    1.15635000E-01   3.30476000E-01 
   2.49049000E+00    6.12595000E-01   4.49146000E-01 
   9.44540000E-01    3.93799000E-01   2.65704000E-01 
SP   3    1.000000
   1.27790000E+00   -2.27606000E-01  -1.75130000E-02 
   3.97590000E-01    1.44583000E-03   2.44533000E-01 
   1.60095000E-01    1.09279000E+00   8.04934000E-01 
SP   1    1.000000
   5.56577000E-02    1.00000000E+00   1.00000000E+00 
D    1    1.000000
   3.25000000E-01    1.00000000E+00 

6    0
S    6    1.000000
   1.39831000E+04    1.94267000E-03 
   2.09875000E+03    1.48599000E-02 
   4.77705000E+02    7.28494000E-02 
   1.34360000E+02    2.46830000E-01 
   4.28709000E+01    4.87258000E-01 
   1.45189000E+01    3.23496000E-01 
SP   6    1.000000
   2.39668000E+02   -2.92619000E-03   4.60285000E-03 
   5.74419000E+01   -3.74080000E-02   3.31990000E-02 
   1.82859000E+01   -1.14487000E-01   1.36282000E-01 
   6.59914000E+00    1.15635000E-01   3.30476000E-01 
   2.49049000E+00    6.12595000E-01   4.49146000E-01 
   9.44540000E-01    3.93799000E-01   2.65704000E-01 
SP   3    1.000000
   1.27790000E+00   -2.27606000E-01  -1.75130000E-02 
   3.97590000E-01    1.44583000E-03   2.44533000E-01 
   1.60095000E-01    1.09279000E+00   8.04934000E-01 
SP   1    1.000000
   5.56577000E-02    1.00000000E+00   1.00000000E+00 
D    1    1.000000
   3.25000000E-01    1.00000000E+00 

7    0
S    6    1.000000
   1.39831000E+04    1.94267000E-03 
   2.09875000E+03    1.48599000E-02 
   4.77705000E+02    7.28494000E-02 
   1.34360000E+02    2.46830000E-01 
   4.28709000E+01    4.87258000E-01 
   1.45189000E+01    3.23496000E-01 
SP   6    1.000000
   2.39668000E+02   -2.92619000E-03   4.60285000E-03 
   5.74419000E+01   -3.74080000E-02   3.31990000E-02 
   1.82859000E+01   -1.14487000E-01   1.36282000E-01 
   6.59914000E+00    1.15635000E-01   3.30476000E-01 
   2.49049000E+00    6.12595000E-01   4.49146000E-01 
   9.44540000E-01    3.93799000E-01   2.65704000E-01 
SP   3    1.000000
   1.27790000E+00   -2.27606000E-01  -1.75130000E-02 
   3.97590000E-01    1.44583000E-03   2.44533000E-01 
   1.60095000E-01    1.09279000E+00   8.04934000E-01 
SP   1    1.000000
   5.56577000E-02    1.00000000E+00   1.00000000E+00 
D    1    1.000000
   3.25000000E-01    1.00000000E+00 

8    0
S    6    1.000000
   1.39831000E+04    1.94267000E-03 
   2.09875000E+03    1.48599000E-02 
   4.77705000E+02    7.28494000E-02 
   1.34360000E+02    2.46830000E-01 
   4.28709000E+01    4.87258000E-01 
   1.45189000E+01    3.23496000E-01 
SP   6    1.000000
   2.39668000E+02   -2.92619000E-03   4.60285000E-03 
   5.74419000E+01   -3.74080000E-02   3.31990000E-02 
   1.82859000E+01   -1.14487000E-01   1.36282000E-01 
   6.59914000E+00    1.15635000E-01   3.30476000E-01 
   2.49049000E+00    6.12595000E-01   4.49146000E-01 
   9.44540000E-01    3.93799000E-01   2.65704000E-01 
SP   3    1.000000
   1.27790000E+00   -2.27606000E-01  -1.75130000E-02 
   3.97590000E-01    1.44583000E-03   2.44533000E-01 
   1.60095000E-01    1.09279000E+00   8.04934000E-01 
SP   1    1.000000
   5.56577000E-02    1.00000000E+00   1.00000000E+00 
D    1    1.000000
   3.25000000E-01    1.00000000E+00 

9    0
S    6    1.000000
   1.39831000E+04    1.94267000E-03 
   2.09875000E+03    1.48599000E-02 
   4.77705000E+02    7.28494000E-02 
   1.34360000E+02    2.46830000E-01 
   4.28709000E+01    4.87258000E-01 
   1.45189000E+01    3.23496000E-01 
SP   6    1.000000
   2.39668000E+02   -2.92619000E-03   4.60285000E-03 
   5.74419000E+01   -3.74080000E-02   3.31990000E-02 
   1.82859000E+01   -1.14487000E-01   1.36282000E-01 
   6.59914000E+00    1.15635000E-01   3.30476000E-01 
   2.49049000E+00    6.12595000E-01   4.49146000E-01 
   9.44540000E-01    3.93799000E-01   2.65704000E-01 
SP   3    1.000000
   1.27790000E+00   -2.27606000E-01  -1.75130000E-02 
   3.97590000E-01    1.44583000E-03   2.44533000E-01 
   1.60095000E-01    1.09279000E+00   8.04934000E-01 
SP   1    1.000000
   5.56577000E-02    1.00000000E+00   1.00000000E+00 
D    1    1.000000
   3.25000000E-01    1.00000000E+00 

10    0
S    6    1.000000
   1.39831000E+04    1.94267000E-03 
   2.09875000E+03    1.48599000E-02 
   4.77705000E+02    7.28494000E-02 
   1.34360000E+02    2.46830000E-01 
   4.28709000E+01    4.87258000E-01 
   1.45189000E+01    3.23496000E-01 
SP   6    1.000000
   2.39668000E+02   -2.92619000E-03   4.60285000E-03 
   5.74419000E+01   -3.74080000E-02   3.31990000E-02 
   1.82859000E+01   -1.14487000E-01   1.36282000E-01 
   6.59914000E+00    1.15635000E-01   3.30476000E-01 
   2.49049000E+00    6.12595000E-01   4.49146000E-01 
   9.44540000E-01    3.93799000E-01   2.65704000E-01 
SP   3    1.000000
   1.27790000E+00   -2.27606000E-01  -1.75130000E-02 
   3.97590000E-01    1.44583000E-03   2.44533000E-01 
   1.60095000E-01    1.09279000E+00   8.04934000E-01 
SP   1    1.000000
   5.56577000E-02    1.00000000E+00   1.00000000E+00 
D    1    1.000000
   3.25000000E-01    1.00000000E+00 

11    0
S    6    1.000000
   1.39831000E+04    1.94267000E-03 
   2.09875000E+03    1.48599000E-02 
   4.77705000E+02    7.28494000E-02 
   1.34360000E+02    2.46830000E-01 
   4.28709000E+01    4.87258000E-01 
   1.45189000E+01    3.23496000E-01 
SP   6    1.000000
   2.39668000E+02   -2.92619000E-03   4.60285000E-03 
   5.74419000E+01   -3.74080000E-02   3.31990000E-02 
   1.82859000E+01   -1.14487000E-01   1.36282000E-01 
   6.59914000E+00    1.15635000E-01   3.30476000E-01 
   2.49049000E+00    6.12595000E-01   4.49146000E-01 
   9.44540000E-01    3.93799000E-01   2.65704000E-01 
SP   3    1.000000
   1.27790000E+00   -2.27606000E-01  -1.75130000E-02 
   3.97590000E-01    1.44583000E-03   2.44533000E-01 
   1.60095000E-01    1.09279000E+00   8.04934000E-01 
SP   1    1.000000
   5.56577000E-02    1.00000000E+00   1.00000000E+00 
D    1    1.000000
   3.25000000E-01    1.00000000E+00 

12    0
S    6    1.000000
   1.39831000E+04    1.94267000E-03 
   2.09875000E+03    1.48599000E-02 
   4.77705000E+02    7.28494000E-02 
   1.34360000E+02    2.46830000E-01 
   4.28709000E+01    4.87258000E-01 
   1.45189000E+01    3.23496000E-01 
SP   6    1.000000
   2.39668000E+02   -2.92619000E-03   4.60285000E-03 
   5.74419000E+01   -3.74080000E-02   3.31990000E-02 
   1.82859000E+01   -1.14487000E-01   1.36282000E-01 
   6.59914000E+00    1.15635000E-01   3.30476000E-01 
   2.49049000E+00    6.12595000E-01   4.49146000E-01 
   9.44540000E-01    3.93799000E-01   2.65704000E-01 
SP   3    1.000000
   1.27790000E+00   -2.27606000E-01  -1.75130000E-02 
   3.97590000E-01    1.44583000E-03   2.44533000E-01 
   1.60095000E-01    1.09279000E+00   8.04934000E-01 
SP   1    1.000000
   5.56577000E-02    1.00000000E+00   1.00000000E+00 
D    1    1.000000
   3.25000000E-01    1.00000000E+00 

13    0
S    6    1.000000
   1.39831000E+04    1.94267000E-03 
   2.09875000E+03    1.48599000E-02 
   4.77705000E+02    7.28494000E-02 
   1.34360000E+02    2.46830000E-01 
   4.28709000E+01    4.87258000E-01 
   1.45189000E+01    3.23496000E-01 
SP   6    1.000000
   2.39668000E+02   -2.92619000E-03   4.60285000E-03 
   5.74419000E+01   -3.74080000E-02   3.31990000E-02 
   1.82859000E+01   -1.14487000E-01   1.36282000E-01 
   6.59914000E+00    1.15635000E-01   3.30476000E-01 
   2.49049000E+00    6.12595000E-01   4.49146000E-01 
   9.44540000E-01    3.93799000E-01   2.65704000E-01 
SP   3    1.000000
   1.27790000E+00   -2.27606000E-01  -1.75130000E-02 
   3.97590000E-01    1.44583000E-03   2.44533000E-01 
   1.60095000E-01    1.09279000E+00   8.04934000E-01 
SP   1    1.000000
   5.56577000E-02    1.00000000E+00   1.00000000E+00 
D    1    1.000000
   3.25000000E-01    1.00000000E+00 

14    0
S    3    1.000000
   1.87311370E+01    3.34946000E-02 
   2.82539370E+00    2.34726950E-01 
   6.40121700E-01    8.13757330E-01 
S    1    1.000000
   1.61277800E-01    1.00000000E+00 

15    0
S    3    1.000000
   1.87311370E+01    3.34946000E-02 
   2.82539370E+00    2.34726950E-01 
   6.40121700E-01    8.13757330E-01 
S    1    1.000000
   1.61277800E-01    1.00000000E+00 

[MO]
Sym=X
Ene= -55.267146
Spin=Alpha
Occup=1
     1   -3.118878171260e-04
     2   -3.995525292851e-04
     3    1.201380529615e-07
     4    8.036986464867e-08
     5    1.421689493900e-07
     6   -2.408487375814e-03
     7   -5.606738400791e-04
     8    2.740405849020e-04
     9   -2.972623495943e-04
    10    5.640714012485e-03
    11    4.884987937685e-03
    12   -2.313089449083e-03
    13    2.555659770459e-03
    14   -5.798674278844e-05
    15    1.573894785397e-04
    16   -7.608290660501e-05
    17    1.163049174772e-04
    18   -1.465627959026e-04
    19   -5.317938548514e-03
    20   -1.876605627326e-04
    21   -1.746955371959e-05
    22    7.990243798876e-06
    23   -1.065419323108e-05
    24   -8.648668005477e-04
    25   -3.357635855976e-05
    26    4.788241439035e-05
    27    4.211306100325e-04
    28   -1.036122894082e-03
    29   -3.062895036668e-04
    30    1.764349029652e-04
    31    2.631571145906e-04
    32   -7.451024533346e-05
    33   -6.497086809531e-05
    34    3.290747671055e-05
    35    5.654088404989e-05
    36   -8.638151381990e-05
    37   -8.370790335832e-03
    38   -2.191954887685e-04
    39   -1.686126709925e-05
    40    8.214334508102e-06
    41   -6.992936805786e-06
    42   -8.419827452766e-04
    43    3.205586807348e-04
    44    8.142530094870e-05
    45   -2.583706363253e-04
    46   -1.107853353012e-03
    47    6.128204431739e-05
    48    2.170941577597e-04
    49   -3.957463108847e-04
    50    7.702486727338e-05
    51    5.345281015729e-05
    52   -9.681311941884e-05
    53   -4.821743919902e-05
    54   -2.731587117310e-05
    55   -9.152675875046e-03
    56   -2.303099856464e-04
    57   -1.428909075026e-05
    58    6.136429750345e-06
    59   -8.794734039249e-06
    60   -8.664620130107e-04
    61    2.098595548675e-04
    62    3.288133242384e-04
    63    1.421345048651e-04
    64   -1.041698658333e-03
    65    3.682924176349e-05
    66    3.943463028471e-04
    67   -1.085566738219e-05
    68   -4.948541436015e-05
    69   -5.671063039201e-06
    70   -4.139119284885e-05
    71   -9.078448458771e-05
    72   -9.278975454703e-05
    73   -6.877321798329e-03
    74   -2.126374396003e-04
    75   -1.693392598708e-05
    76    8.152413354682e-06
    77   -9.166519820404e-06
    78   -9.143519130449e-04
    79   -1.156052074943e-04
    80   -3.540555690330e-04
    81    1.872896357697e-04
    82   -7.611859427834e-04
    83   -3.004696276974e-04
    84   -1.334499249455e-04
    85    1.896750249962e-05
    86   -6.503829547314e-05
    87    1.897886189917e-05
    88    2.606412324832e-05
    89    1.209228834876e-04
    90    5.657856394450e-05
    91   -6.517561023406e-03
    92   -2.041914777885e-04
    93   -1.837004773553e-05
    94    8.476623270856e-06
    95   -8.940721785370e-06
    96   -8.775508773047e-04
    97    1.217170933155e-04
    98   -3.317209856207e-04
    99   -2.235806273277e-04
   100   -9.389728948172e-04
   101   -1.459598005953e-04
   102   -1.622197835414e-04
   103   -3.377051250622e-04
   104    6.848312162118e-05
   105    1.177799305218e-04
   106    2.640704942172e-05
   107    4.488058832081e-05
   108    4.714145997300e-05
   109   -4.951479723665e-03
   110   -4.991435860110e-05
   111    2.899483280716e-06
   112   -3.276163802706e-06
   113    4.621179207508e-06
   114    8.455721098542e-05
   115   -8.359027997344e-05
   116    5.048158395136e-05
   117   -6.047215233328e-05
   118   -9.130953411055e-05
   119   -4.301248610002e-05
   120    1.685800847781e-05
   121   -2.427048031843e-05
   122    2.616815940020e-05
   123   -7.338821723057e-06
   124   -9.063157411636e-06
   125   -2.590177655328e-05
   126    1.403444121138e-05
   127   -3.590634749435e-03
   128   -3.670650305103e-05
   129    5.521428940325e-06
   130   -2.868724198117e-06
   131   -4.504858765503e-07
   132    6.716780174815e-05
   133   -9.598568919767e-05
   134    4.835206034763e-05
   135   -3.213337812008e-05
   136    2.577383683584e-06
   137   -3.475702378346e-05
   138    2.110479026556e-05
   139    1.615540957215e-05
   140   -9.613195912179e-06
   141   -3.520692234190e-05
   142    1.665610171866e-05
   143   -3.004899468087e-06
   144    2.033748950123e-06
   145   -4.660854778195e-03
   146   -4.716781367351e-05
   147    3.718935230678e-06
   148   -5.349501946959e-06
   149    1.930856883558e-06
   150    8.098460313604e-05
   151   -8.923443143159e-05
   152    6.277433189502e-05
   153   -4.684897143425e-05
   154   -7.955546740815e-05
   155   -3.742384143679e-05
   156    1.323740867655e-05
   157   -1.182456785365e-05
   158   -3.335272718248e-06
   159   -2.350865824341e-05
   160    8.912046872199e-07
   161   -3.364800815692e-05
   162   -2.492130442656e-06
   163   -4.373880373084e-03
   164   -4.707541637006e-05
   165    4.661152130089e-06
   166    3.929528630235e-07
   167    4.470484061711e-06
   168    5.549729870548e-05
   169   -9.271436219010e-05
   170    3.041082119557e-05
   171   -5.833577449329e-05
   172    5.363054805080e-05
   173    2.012040176933e-05
   174   -1.173823822634e-05
   175   -2.909895765326e-05
   176    2.122266950866e-05
   177    3.369020266356e-06
   178    1.352531108428e-05
   179   -4.645007010260e-06
   180    2.991937373964e-05
   181   -6.338036499989e-03
   182   -6.473948728772e-05
   183    5.683001280681e-06
   184    1.770760320017e-07
   185    1.582141102031e-06
   186    9.407060691386e-05
   187   -9.438108997467e-05
   188    3.067189696825e-05
   189   -4.388105043472e-05
   190   -9.466451934838e-05
   191   -2.616422072421e-05
   192    1.898366686935e-05
   193   -1.562500852002e-05
   194   -5.573720485564e-06
   195   -1.620131210814e-05
   196    1.737899400247e-05
   197    1.084837417714e-05
   198    3.053373307078e-05
   199    9.969882596552e-01
   200    1.073008126387e-02
   201   -9.305203679725e-05
   202    4.867102821961e-05
   203   -5.022645003247e-05
   204   -5.823328264003e-03
   205    9.161020366313e-04
   206   -4.743602798676e-04
   207    4.910164947507e-04
   208    3.192710350445e-03
   209   -5.943340601820e-04
   210    4.321794777093e-04
   211   -3.780972544396e-04
   212    3.485497337047e-05
   213   -8.400186261138e-05
   214    3.635227954949e-05
   215   -6.475919303093e-05
   216    6.874765425148e-05
   217    4.712010500099e-03
   218    8.867840982372e-05
   219   -2.781455464845e-06
   220    1.809598348514e-06
   221   -1.407001016390e-06
   222    2.164261512145e-04
   223    1.051221706182e-04
   224   -5.532968459125e-05
   225    5.484200751267e-05
   226    1.646933621862e-03
   227    4.916851902742e-04
   228   -2.340588147787e-04
   229    2.635641386125e-04
   230    4.985088851535e-06
   231   -1.460721265130e-05
   232    6.122067876136e-06
   233   -1.110352253109e-05
   234    1.289572189349e-05
   235    5.118554485589e-05
   236   -2.077764664235e-04
   237   -4.455972167508e-06
   238    1.245260291043e-04
Sym=X
Ene= -55.267022
Spin=Alpha
Occup=1
     1    2.949481774550e-04
     2    3.764057600266e-04
     3    7.042597732108e-08
     4   -3.856036466844e-07
     5   -1.124212691438e-07
     6    2.268502308255e-03
     7    4.553388027376e-04
     8    4.360512075700e-04
     9    2.921979642585e-04
    10   -5.309614539703e-03
    11   -3.957534988720e-03
    12   -3.748193013111e-03
    13   -2.511938027262e-03
    14    6.770876690416e-05
    15   -1.243064176549e-04
    16   -1.199571075277e-04
    17   -4.155439284407e-06
    18   -1.912664727344e-04
    19    8.702176682541e-03
    20    2.251348509742e-04
    21    1.461518180343e-05
    22    1.339906280076e-05
    23    9.495151005942e-06
    24    8.546544036096e-04
    25    2.327468008504e-05
    26    2.911557286372e-05
    27   -4.180117785473e-04
    28    1.037403019262e-03
    29    2.526948420784e-04
    30    2.307552382551e-04
    31   -2.763773870550e-04
    32    6.857503099575e-05
    33    6.003284530486e-05
    34    5.794594039553e-05
    35   -2.714367666467e-06
    36   -9.915998583526e-05
    37    3.086869706955e-02
    38    4.624773291762e-04
    39    1.161809845313e-05
    40    1.283522941780e-05
    41    8.628180572484e-06
    42    7.166762158785e-04
    43   -3.080440015487e-04
    44   -2.844188183945e-06
    45    2.406431909203e-04
    46    1.148805104354e-03
    47   -1.294660822918e-04
    48    1.859573239003e-04
    49    3.947657120153e-04
    50   -6.990396797943e-05
    51   -1.842323716193e-05
    52   -1.138647649522e-04
    53    5.901339046632e-05
    54    2.247454458942e-06
    55   -9.959415610660e-01
    56   -1.072153023109e-02
    57    7.508528805628e-05
    58    7.639762400227e-05
    59    4.708113095540e-05
    60    5.796019667605e-03
    61   -7.332267740363e-04
    62   -7.451508544626e-04
    63   -4.495309747299e-04
    64   -3.215020631156e-03
    65    5.085411697083e-04
    66    5.737555888024e-04
    67    3.597693936803e-04
    68   -3.481700711686e-05
    69    6.124705160009e-05
    70    5.890976849035e-05
    71    8.170061183731e-06
    72    9.516783643771e-05
    73    1.181363394891e-02
    74    1.284395293914e-04
    75   -3.923713044937e-06
    76   -5.849457233789e-07
    77   -5.000839322774e-06
    78   -8.977752326290e-05
    79    7.764078600300e-05
    80    5.441585420394e-05
    81    6.082737160092e-05
    82   -9.354493697645e-06
    83   -1.150513532039e-05
    84   -3.228808898927e-06
    85    2.153981890549e-05
    86   -2.174018265781e-05
    87   -8.704447722076e-06
    88    1.119555453808e-05
    89   -1.487872884487e-05
    90    2.427716527022e-05
    91    8.499590791097e-03
    92    8.605193281065e-05
    93   -5.867619974037e-06
    94   -1.249439279127e-06
    95   -9.961144310965e-07
    96   -1.204915599453e-04
    97    8.654570424639e-05
    98    4.883066193121e-05
    99    3.785442340909e-05
   100    7.206498889547e-05
   101    1.821149119535e-05
   102    1.669254892559e-05
   103    2.032863348504e-05
   104    2.314457747253e-06
   105    6.229106738433e-06
   106    1.792049004367e-05
   107   -2.814897910685e-05
   108    2.244520902207e-05
   109    9.989677259725e-03
   110    1.013671180303e-04
   111   -1.173287367529e-06
   112   -4.151555114525e-06
   113   -4.770856262889e-06
   114   -1.330209424792e-04
   115    5.393202592151e-05
   116    7.235616790138e-05
   117    6.547516060260e-05
   118    1.208770227373e-04
   119    4.695565725278e-05
   120    3.261920323697e-05
   121    1.890592762850e-05
   122   -2.486045090814e-05
   123    1.156967777883e-05
   124   -9.830236880284e-06
   125    1.204741148149e-05
   126    2.559391499750e-05
   127    5.427859489069e-03
   128    4.887334727943e-05
   129   -4.747554033375e-06
   130   -4.941973034029e-06
   131    1.424625622593e-06
   132   -1.305896792916e-04
   133    7.720031539677e-05
   134    7.552197180468e-05
   135    4.067422258259e-06
   136   -2.567368502590e-05
   137    2.456582313549e-05
   138    2.185153686465e-05
   139   -1.942228962666e-05
   140    2.599315823445e-06
   141    2.937385106537e-05
   142    2.970604856797e-05
   143    1.138906774676e-06
   144    4.346711823625e-06
   145   -6.758843352957e-03
   146   -1.153299491846e-04
   147    2.442227665165e-06
   148    2.684451902683e-06
   149    1.046484080383e-06
   150   -2.355922940182e-04
   151   -9.212320610491e-05
   152   -9.854175585315e-05
   153   -5.220192208956e-05
   154   -1.690081339321e-03
   155   -4.008003050789e-04
   156   -3.960379653110e-04
   157   -2.488908908568e-04
   158   -5.193724894303e-06
   159    1.156385963259e-05
   160    9.191274992185e-06
   161   -3.540976735102e-07
   162    1.432910190969e-05
   163    1.030339206802e-02
   164    2.427797220240e-04
   165    1.328872345562e-05
   166    1.318063114593e-05
   167    8.473001231001e-06
   168    8.528063856790e-04
   169    2.165221116560e-04
   170   -3.034127712349e-04
   171   -1.556226307704e-04
   172    8.352659721825e-04
   173    3.696440007163e-04
   174   -5.439036038629e-05
   175   -7.257443849498e-06
   176    6.145392922430e-05
   177   -2.553247720771e-05
   178    1.571102396539e-05
   179   -1.271600068932e-04
   180   -2.311444110876e-05
   181    2.183059384270e-02
   182    3.631689953094e-04
   183    1.356953796764e-05
   184    1.250671106456e-05
   185    8.588666559491e-06
   186    7.561316597460e-04
   187   -5.508936712174e-06
   188   -3.120147572052e-04
   189    2.345583539937e-04
   190    9.792349771177e-04
   191    1.954255746508e-04
   192   -1.024427656947e-04
   193    3.545528471724e-04
   194   -6.717677929348e-05
   195   -1.149012915221e-04
   196   -1.894195562899e-05
   197   -5.624062100293e-05
   198    2.579646031200e-06
   199   -8.562486525102e-03
   200    3.611813131608e-05
   201    1.311481567879e-05
   202    1.031730883644e-05
   203    9.217488634590e-06
   204    9.461699761173e-04
   205   -3.006146303968e-04
   206    2.422231134115e-04
   207   -1.595256044468e-04
   208    9.065384247006e-04
   209   -1.384768810516e-04
   210    3.344633139038e-04
   211    2.530647406054e-06
   212    5.608481732224e-05
   213    1.698393101532e-05
   214   -2.758764776553e-05
   215    1.296174407817e-04
   216   -2.411133008584e-05
   217    2.068373989175e-02
   218    2.159109295158e-04
   219   -4.168294751654e-07
   220   -7.344646727677e-06
   221   -7.388736012459e-07
   222   -1.969183459144e-04
   223    3.997911495622e-05
   224    9.984781271290e-05
   225    3.005738647627e-05
   226    9.061421920074e-05
   227    2.952689833312e-05
   228    2.565192777457e-05
   229    1.499358174363e-05
   230    3.603894649012e-06
   231    1.930244706032e-05
   232    1.023516337659e-05
   233    2.747026728010e-05
   234    2.246029312702e-05
   235   -4.642803245022e-05
   236    1.697105869271e-04
   237    9.546445741392e-06
   238   -1.138119035726e-04
Sym=X
Ene= -55.266975
Spin=Alpha
Occup=1
     1   -2.810495520233e-04
     2   -3.603925677814e-04
     3    4.367278183732e-07
     4   -6.290055227383e-08
     5   -4.180641385982e-07
     6   -2.174397948680e-03
     7   -6.272900763087e-04
     8   -5.268322498563e-05
     9    3.012071350316e-04
    10    5.064152435650e-03
    11    5.337010707718e-03
    12    4.506047201081e-04
    13   -2.576096589580e-03
    14   -3.464858208553e-05
    15   -1.860840862900e-04
    16   -5.753499934378e-06
    17    1.855675824780e-04
    18    4.944542949299e-05
    19   -8.813554703172e-03
    20   -9.488862269652e-05
    21    5.836488555333e-06
    22   -1.414129302769e-07
    23    8.006826285442e-08
    24    7.994570174343e-05
    25   -1.097196393529e-04
    26   -8.054100733277e-06
    27    4.232665273239e-05
    28   -1.161378389294e-04
    29   -5.817585587697e-05
    30   -1.513231182680e-05
    31    2.933745678085e-05
    32   -1.394891278688e-05
    33    3.551109352481e-05
    34   -2.626788913723e-07
    35    2.814096070945e-06
    36    3.267969144732e-06
    37    9.915812882407e-01
    38    1.067563563979e-02
    39   -1.019306054602e-04
    40   -1.292858969294e-05
    41    5.654027688434e-05
    42   -5.760483053870e-03
    43    9.746563440984e-04
    44    1.369044802426e-04
    45   -5.616150811768e-04
    46    3.286105090268e-03
    47   -7.764746430172e-04
    48   -8.729104316603e-05
    49    4.090852563531e-04
    50    2.693127358799e-05
    51    9.576226838323e-05
    52    1.711725041302e-05
    53   -8.141667730988e-05
    54   -1.559761261893e-05
    55    2.768606385963e-02
    56    1.741948767579e-04
    57   -2.118684653650e-05
    58   -3.904568409292e-06
    59    7.549959956300e-06
    60   -1.014522955385e-03
    61    2.305322600422e-04
    62    2.881482858544e-04
    63    2.103370243724e-04
    64   -7.517791438072e-04
    65   -1.204348441601e-04
    66    2.014613522550e-04
    67    3.090385952743e-04
    68    7.525686320897e-05
    69   -9.727990471868e-05
    70    6.793107113278e-05
    71   -5.356681317862e-07
    72   -5.546369045578e-05
    73   -2.880838955100e-02
    74   -3.099712469640e-04
    75    5.624035295004e-06
    76   -4.189175932554e-06
    77   -9.233004266900e-07
    78    2.025081051628e-04
    79   -1.057345732729e-04
    80    1.309923756310e-05
    81    4.094708449938e-05
    82   -3.065389773042e-04
    83   -6.078815467680e-05
    84   -6.824104686825e-05
    85    4.851148297815e-05
    86   -9.711280583217e-06
    87    2.169155979879e-05
    88    9.023377116677e-06
    89   -1.046385314264e-05
    90   -3.057954433304e-05
    91   -1.560417813680e-02
    92   -2.997015967575e-04
    93   -1.823315014945e-05
    94   -2.851527857668e-06
    95    1.054059607973e-05
    96   -8.182028569867e-04
    97    9.866455513667e-05
    98   -3.579014128274e-04
    99   -1.586535447088e-04