                  Welcome to Q-Chem
     A Quantum Leap Into The Future Of Chemistry


 Q-Chem 5.4 (devel), Q-Chem, Inc., Pleasanton, CA (2021)

 E. Epifanovsky,  A. T. B. Gilbert,  Xintian Feng,  Joonho Lee,  Yuezhi Mao,  
 N. Mardirossian,  P. Pokhilko,  A. White,  M. Wormit,  M. P. Coons,  
 A. L. Dempwolff,  Zhengting Gan,  D. Hait,  P. R. Horn,  L. D. Jacobson,  
 I. Kaliman,  J. Kussmann,  A. W. Lange,  Ka Un Lao,  D. S. Levine,  Jie Liu,  
 S. C. McKenzie,  A. F. Morrison,  K. Nanda,  F. Plasser,  D. R. Rehn,  
 M. L. Vidal,  Zhi-Qiang You,  Ying Zhu,  B. Alam,  B. Albrecht,  
 A. Aldossary,  E. Alguire,  J. H. Andersen,  D. Barton,  K. Begam,  A. Behn,  
 Y. A. Bernard,  E. J. Berquist,  H. Burton,  A. Carreras,  K. Carter-Fenk,  
 R. Chakraborty,  A. D. Chien,  K. D. Closser,  V. Cofer-Shabica,  
 S. Dasgupta,  Jia Deng,  M. de Wergifosse,  M. Diedenhofen,  Hainam Do,  
 S. Ehlert,  Po-Tung Fang,  S. Fatehi,  Qingguo Feng,  T. Friedhoff,  
 J. Gayvert,  Qinghui Ge,  G. Gidofalvi,  M. Goldey,  J. Gomes,  
 C. Gonzalez-Espinoza,  S. Gulania,  A. Gunina,  M. W. D. Hanson-Heine,  
 P. H. P. Harbach,  A. W. Hauser,  M. F. Herbst,  M. Hernandez Vera,  
 M. Hodecker,  Z. C. Holden,  S. Houck,  Xunkun Huang,  Kerwin Hui,  
 B. C. Huynh,  M. Ivanov,  Hyunjun Ji,  Hanjie Jiang,  B. Kaduk,  S. Kaehler,  
 K. Khistyaev,  Jaehoon Kim,  P. Klunzinger,  Z. Koczor-Benda,  
 Joong Hoon Koh,  D. Kosenkov,  L. Koulias,  T. Kowalczyk,  C. M. Krauter,  
 K. Kue,  A. Kunitsa,  T. Kus,  A. Landau,  K. V. Lawler,  D. Lefrancois,  
 S. Lehtola,  Rain Li,  Yi-Pei Li,  Jiashu Liang,  M. Liebenthal,  
 Hung-Hsuan Lin,  You-Sheng Lin,  Fenglai Liu,  Kuan-Yu Liu,  
 M. Loipersberger,  A. Luenser,  A. Manjanath,  P. Manohar,  E. Mansoor,  
 S. F. Manzer,  Shan-Ping Mao,  A. V. Marenich,  T. Markovich,  S. Mason,  
 S. A. Maurer,  P. F. McLaughlin,  M. F. S. J. Menger,  J.-M. Mewes,  
 S. A. Mewes,  P. Morgante,  J. W. Mullinax,  K. J. Oosterbaan,  G. Paran,  
 Alexander C. Paul,  Suranjan K. Paul,  F. Pavosevic,  Zheng Pei,  S. Prager,  
 E. I. Proynov,  E. Ramos,  B. Rana,  A. E. Rask,  A. Rettig,  R. M. Richard,  
 F. Rob,  E. Rossomme,  T. Scheele,  M. Scheurer,  M. Schneider,  
 N. Sergueev,  S. M. Sharada,  W. Skomorowski,  D. W. Small,  C. J. Stein,  
 Yu-Chuan Su,  E. J. Sundstrom,  Zhen Tao,  J. Thirman,  T. Tsuchimochi,  
 N. M. Tubman,  S. P. Veccham,  O. Vydrov,  J. Wenzel,  J. Witte,  A. Yamada,  
 Kun Yao,  S. Yeganeh,  S. R. Yost,  A. Zech,  Igor Ying Zhang,  Xing Zhang,  
 Yu Zhang,  D. Zuev,  A. Aspuru-Guzik,  A. T. Bell,  N. A. Besley,  
 K. B. Bravaya,  B. R. Brooks,  D. Casanova,  Jeng-Da Chai,  S. Coriani,  
 C. J. Cramer,  A. E. DePrince, III,  R. A. DiStasio Jr.,  A. Dreuw,  
 B. D. Dunietz,  T. R. Furlani,  W. A. Goddard III,  S. Grimme,  
 S. Hammes-Schiffer,  T. Head-Gordon,  W. J. Hehre,  Chao-Ping Hsu,  
 T.-C. Jagau,  Yousung Jung,  A. Klamt,  Jing Kong,  D. S. Lambrecht,  
 WanZhen Liang,  N. J. Mayhall,  C. W. McCurdy,  J. B. Neaton,  
 C. Ochsenfeld,  J. A. Parkhill,  R. Peverati,  V. A. Rassolov,  Yihan Shao,  
 L. V. Slipchenko,  T. Stauch,  R. P. Steele,  J. E. Subotnik,  
 A. J. W. Thom,  A. Tkatchenko,  D. G. Truhlar,  T. Van Voorhis,  
 T. A. Wesolowski,  K. B. Whaley,  H. L. Woodcock III,  P. M. Zimmerman,  
 S. Faraji,  P. M. W. Gill,  M. Head-Gordon,  J. M. Herbert,  A. I. Krylov

 Additional authors for Version 5.4.1: 
 S. Kotaru,  Shaozhi Li,  Xiangyuan Li,  F. Matz,  A. Molle,  Haisheng Ren,  
 Yingli Su,  Hung-Yi Tsai,  C. Utku,  Fang Wang

 Contributors to earlier versions of Q-Chem not listed above: 
 R. D. Adamson,  B. Austin,  R. Baer,  J. Baker,  G. J. O. Beran,  
 K. Brandhorst,  S. T. Brown,  E. F. C. Byrd,  A. K. Chakraborty,  
 G. K. L. Chan,  Chun-Min Chang,  Yunqing Chen,  C.-L. Cheng,  
 Siu Hung Chien,  D. M. Chipman,  D. L. Crittenden,  H. Dachsel,  
 R. J. Doerksen,  A. D. Dutoi,  R. G. Edgar,  J. Fosso-Tande,  
 L. Fusti-Molnar,  D. Ghosh,  A. Ghysels,  A. Golubeva-Zadorozhnaya,  
 J. Gonthier,  M. S. Gordon,  S. R. Gwaltney,  G. Hawkins,  J. E. Herr,  
 A. Heyden,  S. Hirata,  E. G. Hohenstein,  G. Kedziora,  F. J. Keil,  
 C. Kelley,  Jihan Kim,  R. A. King,  R. Z. Khaliullin,  P. P. Korambath,  
 W. Kurlancheek,  A. Laurent,  A. M. Lee,  M. S. Lee,  S. V. Levchenko,  
 Ching Yeh Lin,  D. Liotard,  E. Livshits,  R. C. Lochan,  I. Lotan,  
 L. A. Martinez-Martinez,  P. E. Maslen,  N. Nair,  D. P. O'Neill,  
 D. Neuhauser,  E. Neuscamman,  C. M. Oana,  R. Olivares-Amaya,  R. Olson,  
 T. M. Perrine,  B. Peters,  P. A. Pieniazek,  A. Prociuk,  Y. M. Rhee,  
 J. Ritchie,  M. A. Rohrdanz,  E. Rosta,  N. J. Russ,  H. F. Schaefer III,  
 M. W. Schmidt,  N. E. Schultz,  S. Sharma,  N. Shenvi,  C. D. Sherrill,  
 A. C. Simmonett,  A. Sodt,  T. Stein,  D. Stuck,  K. S. Thanthiriwatte,  
 V. Vanovschi,  L. Vogt,  Tao Wang,  A. Warshel,  M. A. Watson,  
 C. F. Williams,  Q. Wu,  X. Xu,  Jun Yang,  W. Zhang,  Yan Zhao

 Please cite Q-Chem as follows:
 Y. Shao et al., Mol. Phys. 113, 184-215 (2015)
 DOI: 10.1080/00268976.2014.952696

 Q-Chem 5.4.1 for Intel X86 EM64T Linux

 Parts of Q-Chem use Armadillo 9.900.5 (Nocturnal Misbehaviour).
 http://arma.sourceforge.net/

 Q-Chem begins on Mon Aug 21 15:40:10 2023  

 Host: r916u01n04.grace.ycrc.yale.edu
0

     Scratch files written to /home/tl686/palmer_scratch/qchem_dev/scratch/qchem772600//
 Processing $rem in /home/tl686/qchem_dev/qchem/config/preferences:
 Processing $rem in /home/tl686/.qchemrc:

 Checking the input file for inconsistencies... 	...done.

--------------------------------------------------------------
User input:
--------------------------------------------------------------
$molecule
+1 1
H      0.000000    0.000000    3.822
Au     0.000000    0.000000    2.222000
Au    -1.392000    0.000000    0.000000
Au     1.393000    0.000000    0.000000
Au     0.000000    0.000000   -2.411000
Au     2.626000    0.000000   -2.315000
Au    -2.614000    0.000000   -2.320000
Au     0.000000    0.000000    5.422000000000001
Au    -1.392000    0.000000    7.644
Au     1.393000    0.000000    7.644
Au     0.000000    0.000000    10.055
Au     2.626000    0.000000    9.959
Au    -2.614000    0.000000    9.964
$end
$rem
jobtype = sp
sym_ignore = false
input_bohr = false
method = b3lyp
SCF_ALGORITHM = GDM
MAX_SCF_CYCLES=500
SCF_CONVERGENCE = 8
MEM_TOTAL = 100000 
ECP = fit-LANL2DZ
basis = general
IANLTY     200
ESP_GRID     -1
$end


$basis
   H 0
   def2-qzvp
   ****
   Au 0
   LANL2DZ
   ****
$end

$plots
   plot the electrostatic potential on a line
   14001   -7.0   7.0
   1   0.0   0.0
   1   0.0   0.0
   0  0  0  0
   0
$end
--------------------------------------------------------------
 ----------------------------------------------------------------
             Standard Nuclear Orientation (Angstroms)
    I     Atom           X                Y                Z
 ----------------------------------------------------------------
    1      H      -0.0000000000     0.0000000000     0.0021643836
    2      Au     -1.6000000000    -0.0000000000     0.0021643836
    3      Au     -3.8220000000    -0.0000000000     1.3941643836
    4      Au     -3.8220000000    -0.0000000000    -1.3908356164
    5      Au     -6.2330000000    -0.0000000000     0.0021643836
    6      Au     -6.1370000000    -0.0000000000    -2.6238356164
    7      Au     -6.1420000000    -0.0000000000     2.6161643836
    8      Au      1.6000000000     0.0000000000     0.0021643836
    9      Au      3.8220000000     0.0000000000     1.3941643836
   10      Au      3.8220000000     0.0000000000    -1.3908356164
   11      Au      6.2330000000     0.0000000000     0.0021643836
   12      Au      6.1370000000     0.0000000000    -2.6238356164
   13      Au      6.1420000000     0.0000000000     2.6161643836
 ----------------------------------------------------------------
 Molecular Point Group                 C2v   NOp =  4
 Largest Abelian Subgroup              C2v   NOp =  4
 Nuclear Repulsion Energy =        2577.14350760 hartrees
 There are      114 alpha and      114 beta electrons
 Requested basis set is non-standard
 There are 106 shells and 294 basis functions

 Total QAlloc Memory Limit 100000 MB
 Mega-Array Size       188 MB
 MEM_STATIC part       192 MB

                       Distance Matrix (Angstroms)
             H (  1)   Au(  2)   Au(  3)   Au(  4)   Au(  5)   Au(  6)
   Au(  2)  1.600000
   Au(  3)  4.067597  2.622012
   Au(  4)  4.067940  2.622543  2.785000
   Au(  5)  6.233000  4.633000  2.783987  2.784487
   Au(  6)  6.675226  5.242160  4.637192  2.622883  2.627754
   Au(  7)  6.675115  5.240492  2.622153  4.630167  2.615583  5.240002
   Au(  8)  1.600000  3.200000  5.597834  5.598083  7.833000  8.170498
   Au(  9)  4.067597  5.597834  7.644000  8.135537 10.150896 10.738995
   Au( 10)  4.067940  5.598083  8.135537  7.644000 10.151033 10.035037
   Au( 11)  6.233000  7.833000 10.150896 10.151033 12.466000 12.645662
   Au( 12)  6.675226  8.170498 10.738995 10.035037 12.645662 12.274000
   Au( 13)  6.675115  8.171387 10.038654 10.739523 12.648068 13.350335
             Au(  7)   Au(  8)   Au(  9)   Au( 10)   Au( 11)   Au( 12)
   Au(  8)  8.171387
   Au(  9) 10.038654  2.622012
   Au( 10) 10.739523  2.622543  2.785000
   Au( 11) 12.648068  4.633000  2.783987  2.784487
   Au( 12) 13.350335  5.242160  4.637192  2.622883  2.627754
   Au( 13) 12.284000  5.240492  2.622153  4.630167  2.615583  5.240002


 A cutoff of  1.0D-12 yielded   4385 shell pairs
 There are     33281 function pairs (     39834 Cartesian)
 Requested basis set is non-standard
 Compound shells will be simplified
 There are 106 shells and 294 basis functions
 A cutoff of  1.0D-12 yielded   4385 shell pairs
 There are     33281 function pairs (     39834 Cartesian)
 Smallest overlap matrix eigenvalue = 4.54E-04

 Scale SEOQF with 1.000000e-02/1.000000e-01/1.000000e-01

 Standard Electronic Orientation quadrupole field applied
 Nucleus-field energy     =    -0.0000000519 hartrees
 ================ Generating on-the-fly SAD Guess ================
Attempting to make child job directory: /home/tl686/palmer_scratch/qchem_dev/scratch/qchem772600//Frg1/
Attempting to make child job directory: /home/tl686/palmer_scratch/qchem_dev/scratch/qchem772600//Frg2/
Creating input file /home/tl686/palmer_scratch/qchem_dev/scratch/qchem772600/Frg1.input
using default PutDataFrgm: nothing
calling putenv with: QCSCRATCH=/home/tl686/palmer_scratch/qchem_dev/scratch/qchem772600/ 
Spawning Job For Fragment 0
Done Job For Fragment 0
calling putenv with: QCSCRATCH=/home/tl686/palmer_scratch/qchem_dev/scratch 
calling putenv with: QCTHREADS=32 
Creating input file /home/tl686/palmer_scratch/qchem_dev/scratch/qchem772600/Frg2.input
using default PutDataFrgm: nothing
calling putenv with: QCSCRATCH=/home/tl686/palmer_scratch/qchem_dev/scratch/qchem772600/ 
Spawning Job For Fragment 1
Done Job For Fragment 1
calling putenv with: QCSCRATCH=/home/tl686/palmer_scratch/qchem_dev/scratch 
calling putenv with: QCTHREADS=32 
 Time for running child jobs:  CPU 0.00 s  wall 3.03 s
 ============= Method Specific SAD Guess Constructed =============
 Guess from on-the-fly superposition of atomic densities
 Warning: Energy on first SCF cycle will be non-variational

 -----------------------------------------------------------------------
  General SCF calculation program by
  Eric Jon Sundstrom, Paul Horn, Yuezhi Mao, Dmitri Zuev, Alec White,
  David Stuck, Shaama M.S., Shane Yost, Joonho Lee, David Small,
  Daniel Levine, Susi Lehtola, Hugh Burton, Evgeny Epifanovsky,
  Bang C. Huynh
 -----------------------------------------------------------------------
 Exchange:     0.2000 Hartree-Fock + 0.0800 Slater + 0.7200 B88
 Correlation:  0.1900 VWN1RPA + 0.8100 LYP
 Using SG-1 standard quadrature grid
 using 32 threads for integral computing
 -------------------------------------------------------
 OpenMP Integral computing Module                
 Release: version 1.0, May 2013, Q-Chem Inc. Pittsburgh 
 -------------------------------------------------------
 A restricted SCF calculation will be
 performed using Roothaan-Hall, GDM
 SCF converges when RMS gradient is below 1.0e-08
 ---------------------------------------
  Cycle       Energy         DIIS error
 ---------------------------------------
    1   -1628.2579064552      1.69e-02  Roothaan Step
 ---------------------------------------
  Cycle       Energy        RMS Gradient
 ---------------------------------------
    1   -1626.2121922474      5.23e-02   Descent step
    2   -1626.1806955669      1.09e-01  Line search: overstep
    3   -1626.2582280995      1.50e-02   Normal BFGS step
    4   -1626.2570159549      3.98e-02  Line search: overstep
    5   -1626.2608381556      1.03e-02   Normal BFGS step
    6   -1626.2613611181      1.04e-02   Normal BFGS step
    7   -1626.2615834537      6.56e-03   Normal BFGS step
    8   -1626.2616959791      1.43e-03   Normal BFGS step
    9   -1626.2617515325      5.52e-04   Normal BFGS step
   10   -1626.2617557656      4.63e-04   Normal BFGS step
   11   -1626.2617563063      3.13e-04   Normal BFGS step
   12   -1626.2617572984      8.14e-05   Normal BFGS step
   13   -1626.2617573380      6.28e-05   Normal BFGS step
   14   -1626.2617573509      4.97e-05   Normal BFGS step
   15   -1626.2617573662      2.69e-05   Normal BFGS step
   16   -1626.2617573687      8.95e-06   Normal BFGS step
   17   -1626.2617573694      2.00e-06   Normal BFGS step
   18   -1626.2617573694      4.80e-07   Normal BFGS step
   19   -1626.2617573694      1.50e-07   Normal BFGS step
  GDM::WARNING energy changes are now smaller than effective accuracy.
  GDM::        calculation will continue, but THRESH should be increased
  GDM::        or SCF_CONVERGENCE decreased. 
  GDM::        effective_thresh = 2.05e-09
   20   -1626.2617573691      1.30e-07   Normal BFGS step
  GDM::WARNING energy changes are now smaller than effective accuracy.
  GDM::        calculation will continue, but THRESH should be increased
  GDM::        or SCF_CONVERGENCE decreased. 
  GDM::        effective_thresh = 2.05e-09
   21   -1626.2617573689      8.17e-08   Normal BFGS step
   22   -1626.2617573690      1.58e-08   Normal BFGS step
   23   -1626.2617573696      1.81e-08   Normal BFGS step
  GDM::WARNING energy changes are now smaller than effective accuracy.
  GDM::        calculation will continue, but THRESH should be increased
  GDM::        or SCF_CONVERGENCE decreased. 
  GDM::        effective_thresh = 2.05e-09
   24   -1626.2617573689      1.79e-08   Normal BFGS step
   25   -1626.2617573701      6.48e-09  Convergence criterion met
 ---------------------------------------
 SCF time:   CPU 249.79s  wall 11.00s 
 SCF   energy in the final basis set =    -1626.2617573701
 Total energy in the final basis set =    -1626.2617573701

 --------------------------------------------------------------
             Orbital Energies (a.u.) and Symmetries
 --------------------------------------------------------------

 Alpha MOs, Restricted
 -- Occupied --                  
 -4.315  -4.315  -4.295  -4.295  -4.295  -4.295  -4.294  -4.294
  1 B1    1 A1    2 B1    2 A1    3 A1    3 B1    4 B1    4 A1                 
 -4.278  -4.278  -4.277  -4.277  -2.462  -2.461  -2.444  -2.444
  5 B1    5 A1    6 A1    6 B1    7 A1    7 B1    8 A1    8 B1                 
 -2.437  -2.437  -2.436  -2.436  -2.434  -2.434  -2.434  -2.434
  9 A1    9 B1   10 A1   10 B1    1 B2    1 A2   11 A1   11 B1                 
 -2.431  -2.431  -2.427  -2.426  -2.425  -2.425  -2.419  -2.419
 12 B1   12 A1   13 B1   13 A1   14 B1   14 A1    2 A2    2 B2                 
 -2.419  -2.419  -2.419  -2.419  -2.417  -2.417  -2.415  -2.415
  3 B2    3 A2    4 A2    4 B2   15 B1   15 A1   16 A1   16 B1                 
 -2.411  -2.411  -2.410  -2.410  -2.403  -2.403  -2.402  -2.402
 17 B1   17 A1   18 B1   18 A1    5 B2    5 A2    6 B2    6 A2                 
 -0.643  -0.548  -0.537  -0.536  -0.534  -0.532  -0.508  -0.506
 19 A1   19 B1   20 A1   21 A1   20 B1   21 B1   22 A1   22 B1                 
 -0.506  -0.497  -0.495  -0.493  -0.490  -0.488  -0.488  -0.480
 23 A1   24 A1    7 B2   23 B1   24 B1    7 A2   25 A1    8 B2                 
 -0.480  -0.467  -0.467  -0.461  -0.458  -0.457  -0.456  -0.448
  8 A2    9 B2    9 A2   26 A1   10 B2   10 A2   25 B1   11 B2                 
 -0.447  -0.445  -0.442  -0.439  -0.437  -0.436  -0.434  -0.433
 27 A1   26 B1   27 B1   11 A2   12 B2   12 A2   28 A1   28 B1                 
 -0.428  -0.428  -0.427  -0.427  -0.426  -0.424  -0.424  -0.423
 29 A1   29 B1   13 B2   13 A2   30 A1   31 A1   30 B1   31 B1                 
 -0.418  -0.418  -0.415  -0.415  -0.414  -0.412  -0.409  -0.408
 14 B2   14 A2   15 B2   15 A2   32 A1   32 B1   33 A1   34 A1                 
 -0.408  -0.407  -0.406  -0.403  -0.402  -0.400  -0.400  -0.400
 33 B1   34 B1   16 B2   16 A2   35 A1   36 A1   17 B2   35 B1                 
 -0.400  -0.396  -0.396  -0.390  -0.390  -0.388  -0.387  -0.362
 17 A2   18 A2   18 B2   37 A1   36 B1   37 B1   38 A1   39 A1                 
 -0.361  -0.355
 38 B1   39 B1                                                                 
 -- Virtual --                   
 -0.303  -0.228  -0.219  -0.218  -0.218  -0.199  -0.170  -0.162
 40 A1   41 A1   40 B1   42 A1   41 B1   42 B1   19 B2   19 A2                 
 -0.157  -0.131  -0.120  -0.120  -0.103  -0.102  -0.102  -0.101
 43 A1   44 A1   43 B1   20 B2   45 A1   21 B2   20 A2   46 A1                 
 -0.100  -0.093  -0.085  -0.072  -0.044  -0.043  -0.038  -0.037
 44 B1   21 A2   45 B1   46 B1   22 B2   47 A1   48 A1   23 B2                 
 -0.037  -0.032  -0.032  -0.029  -0.027  -0.025  -0.024  -0.017
 47 B1   22 A2   24 B2   23 A2   49 A1   50 A1   48 B1   49 B1                 
 -0.016  -0.013  -0.006  -0.004   0.003   0.006   0.010   0.010
 51 A1   50 B1   24 A2   51 B1   25 B2   52 A1   53 A1   52 B1                 
  0.013   0.015   0.021   0.023   0.024   0.031   0.033   0.035
 53 B1   25 A2   54 A1   55 A1   54 B1   56 A1   26 B2   55 B1                 
  0.036   0.038   0.042   0.047   0.057   0.065   0.076   0.082
 27 B2   56 B1   26 A2   57 A1   27 A2   57 B1   28 B2   29 B2                 
  0.083   0.087   0.091   0.091   0.098   0.104   0.105   0.112
 28 A2   30 B2   29 A2   58 A1   59 A1   60 A1   58 B1   59 B1                 
  0.113   0.128   0.128   0.134   0.153   0.163   0.165   0.166
 30 A2   61 A1   62 A1   60 B1   61 B1   63 A1   64 A1   62 B1                 
  0.194   0.214   0.238   0.243   0.245   0.263   0.266   0.266
 63 B1   65 A1   66 A1   31 B2   32 B2   67 A1   33 B2   31 A2                 
  0.268   0.269   0.272   0.274   0.279   0.286   0.302   0.305
 32 A2   34 B2   33 A2   64 B1   68 A1   65 B1   66 B1   34 A2                 
  0.321   0.333   0.334   0.341   0.342   0.344   0.347   0.361
 67 B1   35 B2   36 B2   69 A1   70 A1   71 A1   68 B1   35 A2                 
  0.365   0.365   0.370   0.372   0.393   0.398   0.404   0.413
 37 B2   69 B1   36 A2   72 A1   73 A1   37 A2   70 B1   38 B2                 
  0.422   0.425   0.426   0.428   0.441   0.449   0.459   0.460
 71 B1   39 B2   74 A1   38 A2   72 B1   73 B1   39 A2   75 A1                 
  0.463   0.483   0.487   0.492   0.497   0.499   0.503   0.521
 76 A1   77 A1   74 B1   75 B1   40 B2   78 A1   41 B2   79 A1                 
  0.528   0.529   0.538   0.544   0.552   0.553   0.557   0.557
 40 A2   76 B1   80 A1   42 B2   81 A1   77 B1   78 B1   41 A2                 
  0.606   0.609   0.624   0.636   0.636   0.637   0.689   0.705
 79 B1   82 A1   80 B1   83 A1   43 B2   42 A2   81 B1   84 A1                 
  0.717   0.763   0.777   0.826   0.841   0.846   0.850   0.981
 82 B1   85 A1   83 B1   84 B1   86 A1   85 B1   87 A1   88 A1                 
  1.716   1.717   1.751   1.829   1.941   2.117   2.238   2.296
 89 A1   44 B2   43 A2   86 B1   90 A1   87 B1   45 B2   91 A1                 
  4.917   5.235   5.385   5.467   5.467   5.486   5.487   5.576
 92 A1   88 B1   93 A1   94 A1   46 B2   44 A2   89 B1   47 B2                 
  5.576   5.585   6.388   6.706   6.786   6.950   7.393   7.462
 95 A1   90 B1   96 A1   97 A1   91 B1   92 B1   93 B1   98 A1                 
  7.487   7.537   7.639   7.690   7.714   7.749   9.013   9.388
 48 B2   99 A1   49 B2  100 A1   45 A2   94 B1  101 A1   95 B1                 
 10.612  10.770  11.588  13.063
102 A1  103 A1   96 B1   97 B1                                                 

 Beta MOs, Restricted
 -- Occupied --                  
 -4.315  -4.315  -4.295  -4.295  -4.295  -4.295  -4.294  -4.294
  1 B1    1 A1    2 B1    2 A1    3 A1    3 B1    4 B1    4 A1                 
 -4.278  -4.278  -4.277  -4.277  -2.462  -2.461  -2.444  -2.444
  5 B1    5 A1    6 A1    6 B1    7 A1    7 B1    8 A1    8 B1                 
 -2.437  -2.437  -2.436  -2.436  -2.434  -2.434  -2.434  -2.434
  9 A1    9 B1   10 A1   10 B1    1 B2    1 A2   11 A1   11 B1                 
 -2.431  -2.431  -2.427  -2.426  -2.425  -2.425  -2.419  -2.419
 12 B1   12 A1   13 B1   13 A1   14 B1   14 A1    2 A2    2 B2                 
 -2.419  -2.419  -2.419  -2.419  -2.417  -2.417  -2.415  -2.415
  3 B2    3 A2    4 A2    4 B2   15 B1   15 A1   16 A1   16 B1                 
 -2.411  -2.411  -2.410  -2.410  -2.403  -2.403  -2.402  -2.402
 17 B1   17 A1   18 B1   18 A1    5 B2    5 A2    6 B2    6 A2                 
 -0.643  -0.548  -0.537  -0.536  -0.534  -0.532  -0.508  -0.506
 19 A1   19 B1   20 A1   21 A1   20 B1   21 B1   22 A1   22 B1                 
 -0.506  -0.497  -0.495  -0.493  -0.490  -0.488  -0.488  -0.480
 23 A1   24 A1    7 B2   23 B1   24 B1    7 A2   25 A1    8 B2                 
 -0.480  -0.467  -0.467  -0.461  -0.458  -0.457  -0.456  -0.448
  8 A2    9 B2    9 A2   26 A1   10 B2   10 A2   25 B1   11 B2                 
 -0.447  -0.445  -0.442  -0.439  -0.437  -0.436  -0.434  -0.433
 27 A1   26 B1   27 B1   11 A2   12 B2   12 A2   28 A1   28 B1                 
 -0.428  -0.428  -0.427  -0.427  -0.426  -0.424  -0.424  -0.423
 29 A1   29 B1   13 B2   13 A2   30 A1   31 A1   30 B1   31 B1                 
 -0.418  -0.418  -0.415  -0.415  -0.414  -0.412  -0.409  -0.408
 14 B2   14 A2   15 B2   15 A2   32 A1   32 B1   33 A1   34 A1                 
 -0.408  -0.407  -0.406  -0.403  -0.402  -0.400  -0.400  -0.400
 33 B1   34 B1   16 B2   16 A2   35 A1   36 A1   17 B2   35 B1                 
 -0.400  -0.396  -0.396  -0.390  -0.390  -0.388  -0.387  -0.362
 17 A2   18 A2   18 B2   37 A1   36 B1   37 B1   38 A1   39 A1                 
 -0.361  -0.355
 38 B1   39 B1                                                                 
 -- Virtual --                   
 -0.303  -0.228  -0.219  -0.218  -0.218  -0.199  -0.170  -0.162
 40 A1   41 A1   40 B1   42 A1   41 B1   42 B1   19 B2   19 A2                 
 -0.157  -0.131  -0.120  -0.120  -0.103  -0.102  -0.102  -0.101
 43 A1   44 A1   43 B1   20 B2   45 A1   21 B2   20 A2   46 A1                 
 -0.100  -0.093  -0.085  -0.072  -0.044  -0.043  -0.038  -0.037
 44 B1   21 A2   45 B1   46 B1   22 B2   47 A1   48 A1   23 B2                 
 -0.037  -0.032  -0.032  -0.029  -0.027  -0.025  -0.024  -0.017
 47 B1   22 A2   24 B2   23 A2   49 A1   50 A1   48 B1   49 B1                 
 -0.016  -0.013  -0.006  -0.004   0.003   0.006   0.010   0.010
 51 A1   50 B1   24 A2   51 B1   25 B2   52 A1   53 A1   52 B1                 
  0.013   0.015   0.021   0.023   0.024   0.031   0.033   0.035
 53 B1   25 A2   54 A1   55 A1   54 B1   56 A1   26 B2   55 B1                 
  0.036   0.038   0.042   0.047   0.057   0.065   0.076   0.082
 27 B2   56 B1   26 A2   57 A1   27 A2   57 B1   28 B2   29 B2                 
  0.083   0.087   0.091   0.091   0.098   0.104   0.105   0.112
 28 A2   30 B2   29 A2   58 A1   59 A1   60 A1   58 B1   59 B1                 
  0.113   0.128   0.128   0.134   0.153   0.163   0.165   0.166
 30 A2   61 A1   62 A1   60 B1   61 B1   63 A1   64 A1   62 B1                 
  0.194   0.214   0.238   0.243   0.245   0.263   0.266   0.266
 63 B1   65 A1   66 A1   31 B2   32 B2   67 A1   33 B2   31 A2                 
  0.268   0.269   0.272   0.274   0.279   0.286   0.302   0.305
 32 A2   34 B2   33 A2   64 B1   68 A1   65 B1   66 B1   34 A2                 
  0.321   0.333   0.334   0.341   0.342   0.344   0.347   0.361
 67 B1   35 B2   36 B2   69 A1   70 A1   71 A1   68 B1   35 A2                 
  0.365   0.365   0.370   0.372   0.393   0.398   0.404   0.413
 37 B2   69 B1   36 A2   72 A1   73 A1   37 A2   70 B1   38 B2                 
  0.422   0.425   0.426   0.428   0.441   0.449   0.459   0.460
 71 B1   39 B2   74 A1   38 A2   72 B1   73 B1   39 A2   75 A1                 
  0.463   0.483   0.487   0.492   0.497   0.499   0.503   0.521
 76 A1   77 A1   74 B1   75 B1   40 B2   78 A1   41 B2   79 A1                 
  0.528   0.529   0.538   0.544   0.552   0.553   0.557   0.557
 40 A2   76 B1   80 A1   42 B2   81 A1   77 B1   78 B1   41 A2                 
  0.606   0.609   0.624   0.636   0.636   0.637   0.689   0.705
 79 B1   82 A1   80 B1   83 A1   43 B2   42 A2   81 B1   84 A1                 
  0.717   0.763   0.777   0.826   0.841   0.846   0.850   0.981
 82 B1   85 A1   83 B1   84 B1   86 A1   85 B1   87 A1   88 A1                 
  1.716   1.717   1.751   1.829   1.941   2.117   2.238   2.296
 89 A1   44 B2   43 A2   86 B1   90 A1   87 B1   45 B2   91 A1                 
  4.917   5.235   5.385   5.467   5.467   5.486   5.487   5.576
 92 A1   88 B1   93 A1   94 A1   46 B2   44 A2   89 B1   47 B2                 
  5.576   5.585   6.388   6.706   6.786   6.950   7.393   7.462
 95 A1   90 B1   96 A1   97 A1   91 B1   92 B1   93 B1   98 A1                 
  7.487   7.537   7.639   7.690   7.714   7.749   9.013   9.388
 48 B2   99 A1   49 B2  100 A1   45 A2   94 B1  101 A1   95 B1                 
 10.612  10.770  11.588  13.063
102 A1  103 A1   96 B1   97 B1                                                 
 --------------------------------------------------------------

          Ground-State Mulliken Net Atomic Charges

     Atom                 Charge (a.u.)
  ----------------------------------------
      1 H                    -1.136207
      2 Au                    0.796393
      3 Au                    0.162142
      4 Au                    0.161678
      5 Au                    0.064012
      6 Au                   -0.058216
      7 Au                   -0.057905
      8 Au                    0.796393
      9 Au                    0.162142
     10 Au                    0.161678
     11 Au                    0.064012
     12 Au                   -0.058216
     13 Au                   -0.057905
  ----------------------------------------
  Sum of atomic charges =     1.000000

 -----------------------------------------------------------------
                    Cartesian Multipole Moments
 -----------------------------------------------------------------
    Charge (ESU x 10^10)
                 4.8032
    Dipole Moment (Debye)
         X      -0.0000000028      Y       0.0000000000      Z       0.0273331050
       Tot       0.0273331050
    Quadrupole Moments (Debye-Ang)
        XX    -106.0491     XY       0.0000     YY    -278.3032
        XZ       0.0000     YZ      -0.0000     ZZ    -232.2573
    Octopole Moments (Debye-Ang^2)
       XXX      -0.0000    XXY       0.0000    XYY      -0.0000
       YYY      -0.0000    XXZ       0.8198    XYZ      -0.0000
       YYZ       0.0211    XZZ       0.0000    YZZ       0.0000
       ZZZ      -0.1090
    Hexadecapole Moments (Debye-Ang^3)
      XXXX  -32178.5410   XXXY      -0.0000   XXYY   -6822.4396
      XYYY      -0.0000   YYYY    -333.2560   XXXZ       0.0000
      XXYZ       0.0000   XYYZ      -0.0000   YYYZ      -0.0000
      XXZZ   -5776.2195   XYZZ      -0.0000   YYZZ    -903.8877
      XZZZ       0.0000   YZZZ      -0.0000   ZZZZ   -4543.3952
 -----------------------------------------------------------------
 Electrostatic potential will be computed using the SCF density
   ... ESP will be evaluated on the $plots plotting cube.
 ESP points per batch =         5000
   ... The data will be saved in the file plot.esp
  --- DONE ESP SUMMARY ---
 Total job time:  15.74s(wall), 262.76s(cpu) 
 Mon Aug 21 15:40:26 2023

        *************************************************************
        *                                                           *
        *  Thank you very much for using Q-Chem.  Have a nice day.  *
        *                                                           *
        *************************************************************


