                  Welcome to Q-Chem
     A Quantum Leap Into The Future Of Chemistry


 Q-Chem 5.4 (devel), Q-Chem, Inc., Pleasanton, CA (2021)

 E. Epifanovsky,  A. T. B. Gilbert,  Xintian Feng,  Joonho Lee,  Yuezhi Mao,  
 N. Mardirossian,  P. Pokhilko,  A. White,  M. Wormit,  M. P. Coons,  
 A. L. Dempwolff,  Zhengting Gan,  D. Hait,  P. R. Horn,  L. D. Jacobson,  
 I. Kaliman,  J. Kussmann,  A. W. Lange,  Ka Un Lao,  D. S. Levine,  Jie Liu,  
 S. C. McKenzie,  A. F. Morrison,  K. Nanda,  F. Plasser,  D. R. Rehn,  
 M. L. Vidal,  Zhi-Qiang You,  Ying Zhu,  B. Alam,  B. Albrecht,  
 A. Aldossary,  E. Alguire,  J. H. Andersen,  D. Barton,  K. Begam,  A. Behn,  
 Y. A. Bernard,  E. J. Berquist,  H. Burton,  A. Carreras,  K. Carter-Fenk,  
 R. Chakraborty,  A. D. Chien,  K. D. Closser,  V. Cofer-Shabica,  
 S. Dasgupta,  Jia Deng,  M. de Wergifosse,  M. Diedenhofen,  Hainam Do,  
 S. Ehlert,  Po-Tung Fang,  S. Fatehi,  Qingguo Feng,  T. Friedhoff,  
 J. Gayvert,  Qinghui Ge,  G. Gidofalvi,  M. Goldey,  J. Gomes,  
 C. Gonzalez-Espinoza,  S. Gulania,  A. Gunina,  M. W. D. Hanson-Heine,  
 P. H. P. Harbach,  A. W. Hauser,  M. F. Herbst,  M. Hernandez Vera,  
 M. Hodecker,  Z. C. Holden,  S. Houck,  Xunkun Huang,  Kerwin Hui,  
 B. C. Huynh,  M. Ivanov,  Hyunjun Ji,  Hanjie Jiang,  B. Kaduk,  S. Kaehler,  
 K. Khistyaev,  Jaehoon Kim,  P. Klunzinger,  Z. Koczor-Benda,  
 Joong Hoon Koh,  D. Kosenkov,  L. Koulias,  T. Kowalczyk,  C. M. Krauter,  
 K. Kue,  A. Kunitsa,  T. Kus,  A. Landau,  K. V. Lawler,  D. Lefrancois,  
 S. Lehtola,  Rain Li,  Yi-Pei Li,  Jiashu Liang,  M. Liebenthal,  
 Hung-Hsuan Lin,  You-Sheng Lin,  Fenglai Liu,  Kuan-Yu Liu,  
 M. Loipersberger,  A. Luenser,  A. Manjanath,  P. Manohar,  E. Mansoor,  
 S. F. Manzer,  Shan-Ping Mao,  A. V. Marenich,  T. Markovich,  S. Mason,  
 S. A. Maurer,  P. F. McLaughlin,  M. F. S. J. Menger,  J.-M. Mewes,  
 S. A. Mewes,  P. Morgante,  J. W. Mullinax,  K. J. Oosterbaan,  G. Paran,  
 Alexander C. Paul,  Suranjan K. Paul,  F. Pavosevic,  Zheng Pei,  S. Prager,  
 E. I. Proynov,  E. Ramos,  B. Rana,  A. E. Rask,  A. Rettig,  R. M. Richard,  
 F. Rob,  E. Rossomme,  T. Scheele,  M. Scheurer,  M. Schneider,  
 N. Sergueev,  S. M. Sharada,  W. Skomorowski,  D. W. Small,  C. J. Stein,  
 Yu-Chuan Su,  E. J. Sundstrom,  Zhen Tao,  J. Thirman,  T. Tsuchimochi,  
 N. M. Tubman,  S. P. Veccham,  O. Vydrov,  J. Wenzel,  J. Witte,  A. Yamada,  
 Kun Yao,  S. Yeganeh,  S. R. Yost,  A. Zech,  Igor Ying Zhang,  Xing Zhang,  
 Yu Zhang,  D. Zuev,  A. Aspuru-Guzik,  A. T. Bell,  N. A. Besley,  
 K. B. Bravaya,  B. R. Brooks,  D. Casanova,  Jeng-Da Chai,  S. Coriani,  
 C. J. Cramer,  A. E. DePrince, III,  R. A. DiStasio Jr.,  A. Dreuw,  
 B. D. Dunietz,  T. R. Furlani,  W. A. Goddard III,  S. Grimme,  
 S. Hammes-Schiffer,  T. Head-Gordon,  W. J. Hehre,  Chao-Ping Hsu,  
 T.-C. Jagau,  Yousung Jung,  A. Klamt,  Jing Kong,  D. S. Lambrecht,  
 WanZhen Liang,  N. J. Mayhall,  C. W. McCurdy,  J. B. Neaton,  
 C. Ochsenfeld,  J. A. Parkhill,  R. Peverati,  V. A. Rassolov,  Yihan Shao,  
 L. V. Slipchenko,  T. Stauch,  R. P. Steele,  J. E. Subotnik,  
 A. J. W. Thom,  A. Tkatchenko,  D. G. Truhlar,  T. Van Voorhis,  
 T. A. Wesolowski,  K. B. Whaley,  H. L. Woodcock III,  P. M. Zimmerman,  
 S. Faraji,  P. M. W. Gill,  M. Head-Gordon,  J. M. Herbert,  A. I. Krylov

 Additional authors for Version 5.4.1: 
 S. Kotaru,  Shaozhi Li,  Xiangyuan Li,  F. Matz,  A. Molle,  Haisheng Ren,  
 Yingli Su,  Hung-Yi Tsai,  C. Utku,  Fang Wang

 Contributors to earlier versions of Q-Chem not listed above: 
 R. D. Adamson,  B. Austin,  R. Baer,  J. Baker,  G. J. O. Beran,  
 K. Brandhorst,  S. T. Brown,  E. F. C. Byrd,  A. K. Chakraborty,  
 G. K. L. Chan,  Chun-Min Chang,  Yunqing Chen,  C.-L. Cheng,  
 Siu Hung Chien,  D. M. Chipman,  D. L. Crittenden,  H. Dachsel,  
 R. J. Doerksen,  A. D. Dutoi,  R. G. Edgar,  J. Fosso-Tande,  
 L. Fusti-Molnar,  D. Ghosh,  A. Ghysels,  A. Golubeva-Zadorozhnaya,  
 J. Gonthier,  M. S. Gordon,  S. R. Gwaltney,  G. Hawkins,  J. E. Herr,  
 A. Heyden,  S. Hirata,  E. G. Hohenstein,  G. Kedziora,  F. J. Keil,  
 C. Kelley,  Jihan Kim,  R. A. King,  R. Z. Khaliullin,  P. P. Korambath,  
 W. Kurlancheek,  A. Laurent,  A. M. Lee,  M. S. Lee,  S. V. Levchenko,  
 Ching Yeh Lin,  D. Liotard,  E. Livshits,  R. C. Lochan,  I. Lotan,  
 L. A. Martinez-Martinez,  P. E. Maslen,  N. Nair,  D. P. O'Neill,  
 D. Neuhauser,  E. Neuscamman,  C. M. Oana,  R. Olivares-Amaya,  R. Olson,  
 T. M. Perrine,  B. Peters,  P. A. Pieniazek,  A. Prociuk,  Y. M. Rhee,  
 J. Ritchie,  M. A. Rohrdanz,  E. Rosta,  N. J. Russ,  H. F. Schaefer III,  
 M. W. Schmidt,  N. E. Schultz,  S. Sharma,  N. Shenvi,  C. D. Sherrill,  
 A. C. Simmonett,  A. Sodt,  T. Stein,  D. Stuck,  K. S. Thanthiriwatte,  
 V. Vanovschi,  L. Vogt,  Tao Wang,  A. Warshel,  M. A. Watson,  
 C. F. Williams,  Q. Wu,  X. Xu,  Jun Yang,  W. Zhang,  Yan Zhao

 Please cite Q-Chem as follows:
 Y. Shao et al., Mol. Phys. 113, 184-215 (2015)
 DOI: 10.1080/00268976.2014.952696

 Q-Chem 5.4.1 for Intel X86 EM64T Linux

 Parts of Q-Chem use Armadillo 9.900.5 (Nocturnal Misbehaviour).
 http://arma.sourceforge.net/

 Q-Chem begins on Mon Aug 21 15:40:32 2023  

 Host: r916u01n04.grace.ycrc.yale.edu
0

     Scratch files written to /home/tl686/palmer_scratch/qchem_dev/scratch/qchem772969//
 Processing $rem in /home/tl686/qchem_dev/qchem/config/preferences:
 Processing $rem in /home/tl686/.qchemrc:

 Checking the input file for inconsistencies... 	...done.

--------------------------------------------------------------
User input:
--------------------------------------------------------------
$molecule
+1 1
H      0.000000    0.000000    4.122
Au     0.000000    0.000000    2.222000
Au    -1.392000    0.000000    0.000000
Au     1.393000    0.000000    0.000000
Au     0.000000    0.000000   -2.411000
Au     2.626000    0.000000   -2.315000
Au    -2.614000    0.000000   -2.320000
Au     0.000000    0.000000    6.022
Au    -1.392000    0.000000    8.244
Au     1.393000    0.000000    8.244
Au     0.000000    0.000000    10.655000000000001
Au     2.626000    0.000000    10.559000000000001
Au    -2.614000    0.000000    10.564
$end
$rem
jobtype = sp
sym_ignore = false
input_bohr = false
method = b3lyp
SCF_ALGORITHM = GDM
MAX_SCF_CYCLES=500
SCF_CONVERGENCE = 8
MEM_TOTAL = 100000 
ECP = fit-LANL2DZ
basis = general
IANLTY     200
ESP_GRID     -1
$end


$basis
   H 0
   def2-qzvp
   ****
   Au 0
   LANL2DZ
   ****
$end

$plots
   plot the electrostatic potential on a line
   14001   -7.0   7.0
   1   0.0   0.0
   1   0.0   0.0
   0  0  0  0
   0
$end
--------------------------------------------------------------
 ----------------------------------------------------------------
             Standard Nuclear Orientation (Angstroms)
    I     Atom           X                Y                Z
 ----------------------------------------------------------------
    1      H      -0.0000000000     0.0000000000     0.0021643836
    2      Au     -1.9000000000     0.0000000000     0.0021643836
    3      Au     -4.1220000000     0.0000000000     1.3941643836
    4      Au     -4.1220000000     0.0000000000    -1.3908356164
    5      Au     -6.5330000000     0.0000000000     0.0021643836
    6      Au     -6.4370000000    -0.0000000000    -2.6238356164
    7      Au     -6.4420000000     0.0000000000     2.6161643836
    8      Au      1.9000000000    -0.0000000000     0.0021643836
    9      Au      4.1220000000    -0.0000000000     1.3941643836
   10      Au      4.1220000000    -0.0000000000    -1.3908356164
   11      Au      6.5330000000    -0.0000000000     0.0021643836
   12      Au      6.4370000000    -0.0000000000    -2.6238356164
   13      Au      6.4420000000     0.0000000000     2.6161643836
 ----------------------------------------------------------------
 Molecular Point Group                 C2v   NOp =  4
 Largest Abelian Subgroup              C2v   NOp =  4
 Nuclear Repulsion Energy =        2517.63505150 hartrees
 There are      114 alpha and      114 beta electrons
 Requested basis set is non-standard
 There are 106 shells and 294 basis functions

 Total QAlloc Memory Limit 100000 MB
 Mega-Array Size       188 MB
 MEM_STATIC part       192 MB

                       Distance Matrix (Angstroms)
             H (  1)   Au(  2)   Au(  3)   Au(  4)   Au(  5)   Au(  6)
   Au(  2)  1.900000
   Au(  3)  4.350695  2.622012
   Au(  4)  4.351015  2.622543  2.785000
   Au(  5)  6.533000  4.633000  2.783987  2.784487
   Au(  6)  6.952039  5.242160  4.637192  2.622883  2.627754
   Au(  7)  6.952148  5.240492  2.622153  4.630167  2.615583  5.240002
   Au(  8)  1.900000  3.800000  6.180789  6.181014  8.433000  8.740792
   Au(  9)  4.350695  6.180789  8.244000  8.701710 10.745543 11.297646
   Au( 10)  4.351015  6.181014  8.701710  8.244000 10.745672 10.630746
   Au( 11)  6.533000  8.433000 10.745543 10.745672 13.066000 13.233170
   Au( 12)  6.952039  8.740792 11.297646 10.630746 13.233170 12.874000
   Au( 13)  6.952148  8.741965 10.634443 11.298413 13.235695 13.904181
             Au(  7)   Au(  8)   Au(  9)   Au( 10)   Au( 11)   Au( 12)
   Au(  8)  8.741965
   Au(  9) 10.634443  2.622012
   Au( 10) 11.298413  2.622543  2.785000
   Au( 11) 13.235695  4.633000  2.783987  2.784487
   Au( 12) 13.904181  5.242160  4.637192  2.622883  2.627754
   Au( 13) 12.884000  5.240492  2.622153  4.630167  2.615583  5.240002


 A cutoff of  1.0D-12 yielded   4263 shell pairs
 There are     32331 function pairs (     38650 Cartesian)
 Requested basis set is non-standard
 Compound shells will be simplified
 There are 106 shells and 294 basis functions
 A cutoff of  1.0D-12 yielded   4263 shell pairs
 There are     32331 function pairs (     38650 Cartesian)
 Smallest overlap matrix eigenvalue = 4.52E-04

 Scale SEOQF with 1.000000e-02/1.000000e-01/1.000000e-01

 Standard Electronic Orientation quadrupole field applied
 Nucleus-field energy     =    -0.0000000495 hartrees
 ================ Generating on-the-fly SAD Guess ================
Attempting to make child job directory: /home/tl686/palmer_scratch/qchem_dev/scratch/qchem772969//Frg1/
Attempting to make child job directory: /home/tl686/palmer_scratch/qchem_dev/scratch/qchem772969//Frg2/
Creating input file /home/tl686/palmer_scratch/qchem_dev/scratch/qchem772969/Frg1.input
using default PutDataFrgm: nothing
calling putenv with: QCSCRATCH=/home/tl686/palmer_scratch/qchem_dev/scratch/qchem772969/ 
Spawning Job For Fragment 0
Done Job For Fragment 0
calling putenv with: QCSCRATCH=/home/tl686/palmer_scratch/qchem_dev/scratch 
calling putenv with: QCTHREADS=32 
Creating input file /home/tl686/palmer_scratch/qchem_dev/scratch/qchem772969/Frg2.input
using default PutDataFrgm: nothing
calling putenv with: QCSCRATCH=/home/tl686/palmer_scratch/qchem_dev/scratch/qchem772969/ 
Spawning Job For Fragment 1
Done Job For Fragment 1
calling putenv with: QCSCRATCH=/home/tl686/palmer_scratch/qchem_dev/scratch 
calling putenv with: QCTHREADS=32 
 Time for running child jobs:  CPU 0.00 s  wall 2.57 s
 ============= Method Specific SAD Guess Constructed =============
 Guess from on-the-fly superposition of atomic densities
 Warning: Energy on first SCF cycle will be non-variational

 -----------------------------------------------------------------------
  General SCF calculation program by
  Eric Jon Sundstrom, Paul Horn, Yuezhi Mao, Dmitri Zuev, Alec White,
  David Stuck, Shaama M.S., Shane Yost, Joonho Lee, David Small,
  Daniel Levine, Susi Lehtola, Hugh Burton, Evgeny Epifanovsky,
  Bang C. Huynh
 -----------------------------------------------------------------------
 Exchange:     0.2000 Hartree-Fock + 0.0800 Slater + 0.7200 B88
 Correlation:  0.1900 VWN1RPA + 0.8100 LYP
 Using SG-1 standard quadrature grid
 using 32 threads for integral computing
 -------------------------------------------------------
 OpenMP Integral computing Module                
 Release: version 1.0, May 2013, Q-Chem Inc. Pittsburgh 
 -------------------------------------------------------
 A restricted SCF calculation will be
 performed using Roothaan-Hall, GDM
 SCF converges when RMS gradient is below 1.0e-08
 ---------------------------------------
  Cycle       Energy         DIIS error
 ---------------------------------------
    1   -1628.0712710294      1.61e-02  Roothaan Step
 ---------------------------------------
  Cycle       Energy        RMS Gradient
 ---------------------------------------
    1   -1626.2003926836      4.38e-02   Normal BFGS step
    2   -1626.1751062895      7.74e-02  Line search: overstep
    3   -1626.2430633375      8.50e-03   Normal BFGS step
    4   -1626.2438815975      1.44e-02   Normal BFGS step
    5   -1626.2457677362      3.40e-03   Normal BFGS step
    6   -1626.2458779329      3.34e-03   Normal BFGS step
    7   -1626.2459887586      1.27e-03   Normal BFGS step
    8   -1626.2459793009      1.95e-03  Line search: overstep
    9   -1626.2459972426      5.95e-04   Normal BFGS step
   10   -1626.2459976316      5.38e-04   Normal BFGS step
   11   -1626.2459986481      4.51e-04   Normal BFGS step
   12   -1626.2459987336      2.51e-04   Normal BFGS step
   13   -1626.2459989893      4.30e-05   Normal BFGS step
   14   -1626.2459989856      6.29e-05   Normal BFGS step
   15   -1626.2459990039      1.72e-05   Normal BFGS step
   16   -1626.2459990059      8.06e-06   Normal BFGS step
   17   -1626.2459990069      8.74e-07   Normal BFGS step
   18   -1626.2459990068      4.13e-07   Normal BFGS step
   19   -1626.2459990071      2.85e-07   Normal BFGS step
   20   -1626.2459990071      2.51e-07   Normal BFGS step
   21   -1626.2459990070      1.15e-08   Normal BFGS step
  GDM::WARNING energy changes are now smaller than effective accuracy.
  GDM::        calculation will continue, but THRESH should be increased
  GDM::        or SCF_CONVERGENCE decreased. 
  GDM::        effective_thresh = 2.24e-09
   22   -1626.2459990074      9.25e-09  Convergence criterion met
 ---------------------------------------
 SCF time:   CPU 217.46s  wall 8.00s 
 SCF   energy in the final basis set =    -1626.2459990074
 Total energy in the final basis set =    -1626.2459990074

 --------------------------------------------------------------
             Orbital Energies (a.u.) and Symmetries
 --------------------------------------------------------------

 Alpha MOs, Restricted
 -- Occupied --                  
 -4.301  -4.301  -4.296  -4.296  -4.293  -4.293  -4.293  -4.293
  1 A1    1 B1    2 B1    2 A1    3 A1    3 B1    4 B1    4 A1                 
 -4.277  -4.277  -4.277  -4.277  -2.446  -2.446  -2.438  -2.438
  5 B1    5 A1    6 B1    6 A1    7 A1    7 B1    8 A1    8 B1                 
 -2.436  -2.436  -2.434  -2.434  -2.431  -2.431  -2.430  -2.430
  9 A1    9 B1   10 A1   10 B1   11 B1   11 A1   12 A1   12 B1                 
 -2.426  -2.426  -2.424  -2.424  -2.422  -2.422  -2.420  -2.420
 13 B1   13 A1   14 B1   14 A1    1 B2    1 A2    2 B2    2 A2                 
 -2.418  -2.418  -2.417  -2.417  -2.416  -2.416  -2.415  -2.415
  3 A2    3 B2    4 A2    4 B2   15 B1   15 A1   16 A1   16 B1                 
 -2.410  -2.410  -2.410  -2.410  -2.403  -2.403  -2.402  -2.402
 17 B1   17 A1   18 B1   18 A1    5 B2    5 A2    6 B2    6 A2                 
 -0.573  -0.546  -0.534  -0.532  -0.531  -0.531  -0.506  -0.506
 19 A1   19 B1   20 A1   21 A1   20 B1   21 B1   22 B1   22 A1                 
 -0.495  -0.491  -0.490  -0.488  -0.485  -0.484  -0.484  -0.479
 23 A1   24 A1   23 B1   24 B1    7 B2   25 A1    7 A2    8 B2                 
 -0.479  -0.466  -0.466  -0.454  -0.454  -0.454  -0.453  -0.440
  8 A2    9 B2    9 A2   26 A1   10 B2   10 A2   25 B1   27 A1                 
 -0.439  -0.438  -0.437  -0.435  -0.432  -0.432  -0.432  -0.432
 26 B1   11 B2   27 B1   11 A2   28 A1   12 B2   12 A2   28 B1                 
 -0.428  -0.427  -0.427  -0.427  -0.423  -0.423  -0.423  -0.422
 29 A1   13 B2   13 A2   29 B1   30 A1   30 B1   31 A1   31 B1                 
 -0.416  -0.416  -0.415  -0.415  -0.412  -0.411  -0.407  -0.407
 14 B2   14 A2   15 B2   15 A2   32 A1   32 B1   33 A1   33 B1                 
 -0.405  -0.405  -0.402  -0.400  -0.400  -0.399  -0.398  -0.398
 34 A1   34 B1   16 B2   16 A2   35 A1   35 B1   17 B2   17 A2                 
 -0.397  -0.396  -0.396  -0.389  -0.388  -0.387  -0.387  -0.361
 36 A1   18 A2   18 B2   36 B1   37 A1   37 B1   38 A1   39 A1                 
 -0.361  -0.355
 38 B1   39 B1                                                                 
 -- Virtual --                   
 -0.308  -0.222  -0.218  -0.218  -0.217  -0.207  -0.166  -0.165
 40 A1   41 A1   40 B1   42 A1   41 B1   42 B1   19 B2   43 A1                 
 -0.162  -0.128  -0.120  -0.115  -0.102  -0.102  -0.101  -0.101
 19 A2   44 A1   43 B1   20 B2   44 B1   21 B2   20 A2   45 A1                 
 -0.099  -0.095  -0.088  -0.087  -0.046  -0.044  -0.037  -0.035
 46 A1   21 A2   45 B1   46 B1   47 A1   22 B2   48 A1   47 B1                 
 -0.034  -0.032  -0.032  -0.029  -0.027  -0.023  -0.022  -0.019
 23 B2   22 A2   24 B2   23 A2   49 A1   48 B1   50 A1   51 A1                 
 -0.018  -0.015  -0.011  -0.010   0.007   0.007   0.008   0.011
 49 B1   50 B1   24 A2   51 B1   52 B1   52 A1   25 B2   53 A1                 
  0.013   0.014   0.023   0.023   0.024   0.026   0.032   0.034
 53 B1   25 A2   54 A1   54 B1   55 A1   56 A1   55 B1   26 B2                 
  0.034   0.036   0.037   0.041   0.054   0.062   0.078   0.081
 57 A1   56 B1   27 B2   26 A2   27 A2   57 B1   28 B2   29 B2                 
  0.082   0.084   0.090   0.091   0.096   0.104   0.106   0.110
 28 A2   58 A1   29 A2   30 B2   59 A1   58 B1   60 A1   59 B1                 
  0.111   0.129   0.135   0.145   0.150   0.164   0.173   0.177
 30 A2   60 B1   61 A1   62 A1   61 B1   62 B1   63 A1   63 B1                 
  0.183   0.227   0.232   0.237   0.257   0.266   0.267   0.267
 64 A1   65 A1   31 B2   66 A1   32 B2   31 A2   33 B2   32 A2                 
  0.270   0.271   0.272   0.275   0.278   0.280   0.293   0.296
 34 B2   64 B1   33 A2   67 A1   68 A1   65 B1   66 B1   34 A2                 
  0.319   0.322   0.323   0.339   0.344   0.349   0.356   0.360
 67 B1   69 A1   35 B2   70 A1   36 B2   68 B1   71 A1   35 A2                 
  0.363   0.363   0.364   0.377   0.390   0.394   0.398   0.412
 36 A2   69 B1   37 B2   72 A1   73 A1   37 A2   70 B1   38 B2                 
  0.416   0.423   0.426   0.429   0.430   0.435   0.443   0.451
 71 B1   74 A1   39 B2   38 A2   72 B1   73 B1   39 A2   75 A1                 
  0.472   0.483   0.485   0.491   0.496   0.505   0.506   0.521
 76 A1   77 A1   74 B1   75 B1   40 B2   41 B2   78 A1   40 A2                 
  0.528   0.532   0.544   0.546   0.551   0.554   0.555   0.569
 79 A1   76 B1   77 B1   42 B2   41 A2   78 B1   80 A1   81 A1                 
  0.585   0.596   0.597   0.627   0.669   0.676   0.686   0.697
 79 B1   42 A2   80 B1   82 A1   83 A1   81 B1   43 B2   84 A1                 
  0.720   0.724   0.796   0.819   0.836   0.845   0.883   1.086
 82 B1   83 B1   85 A1   84 B1   86 A1   85 B1   87 A1   88 A1                 
  1.767   1.774   1.829   1.880   1.932   2.235   2.282   2.322
 44 B2   89 A1   43 A2   90 A1   86 B1   45 B2   91 A1   87 B1                 
  4.774   5.008   5.111   5.587   5.592   5.599   5.617   5.618
 92 A1   88 B1   93 A1   46 B2   94 A1   89 B1   44 A2   90 B1                 
  5.650   5.650   6.202   6.762   6.770   6.887   7.403   7.478
 47 B2   95 A1   96 A1   97 A1   91 B1   92 B1   93 B1   48 B2                 
  7.513   7.656   7.686   7.753   7.797   7.797   8.481   8.890
 98 A1   99 A1   49 B2   45 A2   94 B1  100 A1   95 B1  101 A1                 
  9.034  10.325  10.378  10.761
102 A1   96 B1  103 A1   97 B1                                                 

 Beta MOs, Restricted
 -- Occupied --                  
 -4.301  -4.301  -4.296  -4.296  -4.293  -4.293  -4.293  -4.293
  1 A1    1 B1    2 B1    2 A1    3 A1    3 B1    4 B1    4 A1                 
 -4.277  -4.277  -4.277  -4.277  -2.446  -2.446  -2.438  -2.438
  5 B1    5 A1    6 B1    6 A1    7 A1    7 B1    8 A1    8 B1                 
 -2.436  -2.436  -2.434  -2.434  -2.431  -2.431  -2.430  -2.430
  9 A1    9 B1   10 A1   10 B1   11 B1   11 A1   12 A1   12 B1                 
 -2.426  -2.426  -2.424  -2.424  -2.422  -2.422  -2.420  -2.420
 13 B1   13 A1   14 B1   14 A1    1 B2    1 A2    2 B2    2 A2                 
 -2.418  -2.418  -2.417  -2.417  -2.416  -2.416  -2.415  -2.415
  3 A2    3 B2    4 A2    4 B2   15 B1   15 A1   16 A1   16 B1                 
 -2.410  -2.410  -2.410  -2.410  -2.403  -2.403  -2.402  -2.402
 17 B1   17 A1   18 B1   18 A1    5 B2    5 A2    6 B2    6 A2                 
 -0.573  -0.546  -0.534  -0.532  -0.531  -0.531  -0.506  -0.506
 19 A1   19 B1   20 A1   21 A1   20 B1   21 B1   22 B1   22 A1                 
 -0.495  -0.491  -0.490  -0.488  -0.485  -0.484  -0.484  -0.479
 23 A1   24 A1   23 B1   24 B1    7 B2   25 A1    7 A2    8 B2                 
 -0.479  -0.466  -0.466  -0.454  -0.454  -0.454  -0.453  -0.440
  8 A2    9 B2    9 A2   26 A1   10 B2   10 A2   25 B1   27 A1                 
 -0.439  -0.438  -0.437  -0.435  -0.432  -0.432  -0.432  -0.432
 26 B1   11 B2   27 B1   11 A2   28 A1   12 B2   12 A2   28 B1                 
 -0.428  -0.427  -0.427  -0.427  -0.423  -0.423  -0.423  -0.422
 29 A1   13 B2   13 A2   29 B1   30 A1   30 B1   31 A1   31 B1                 
 -0.416  -0.416  -0.415  -0.415  -0.412  -0.411  -0.407  -0.407
 14 B2   14 A2   15 B2   15 A2   32 A1   32 B1   33 A1   33 B1                 
 -0.405  -0.405  -0.402  -0.400  -0.400  -0.399  -0.398  -0.398
 34 A1   34 B1   16 B2   16 A2   35 A1   35 B1   17 B2   17 A2                 
 -0.397  -0.396  -0.396  -0.389  -0.388  -0.387  -0.387  -0.361
 36 A1   18 A2   18 B2   36 B1   37 A1   37 B1   38 A1   39 A1                 
 -0.361  -0.355
 38 B1   39 B1                                                                 
 -- Virtual --                   
 -0.308  -0.222  -0.218  -0.218  -0.217  -0.207  -0.166  -0.165
 40 A1   41 A1   40 B1   42 A1   41 B1   42 B1   19 B2   43 A1                 
 -0.162  -0.128  -0.120  -0.115  -0.102  -0.102  -0.101  -0.101
 19 A2   44 A1   43 B1   20 B2   44 B1   21 B2   20 A2   45 A1                 
 -0.099  -0.095  -0.088  -0.087  -0.046  -0.044  -0.037  -0.035
 46 A1   21 A2   45 B1   46 B1   47 A1   22 B2   48 A1   47 B1                 
 -0.034  -0.032  -0.032  -0.029  -0.027  -0.023  -0.022  -0.019
 23 B2   22 A2   24 B2   23 A2   49 A1   48 B1   50 A1   51 A1                 
 -0.018  -0.015  -0.011  -0.010   0.007   0.007   0.008   0.011
 49 B1   50 B1   24 A2   51 B1   52 B1   52 A1   25 B2   53 A1                 
  0.013   0.014   0.023   0.023   0.024   0.026   0.032   0.034
 53 B1   25 A2   54 A1   54 B1   55 A1   56 A1   55 B1   26 B2                 
  0.034   0.036   0.037   0.041   0.054   0.062   0.078   0.081
 57 A1   56 B1   27 B2   26 A2   27 A2   57 B1   28 B2   29 B2                 
  0.082   0.084   0.090   0.091   0.096   0.104   0.106   0.110
 28 A2   58 A1   29 A2   30 B2   59 A1   58 B1   60 A1   59 B1                 
  0.111   0.129   0.135   0.145   0.150   0.164   0.173   0.177
 30 A2   60 B1   61 A1   62 A1   61 B1   62 B1   63 A1   63 B1                 
  0.183   0.227   0.232   0.237   0.257   0.266   0.267   0.267
 64 A1   65 A1   31 B2   66 A1   32 B2   31 A2   33 B2   32 A2                 
  0.270   0.271   0.272   0.275   0.278   0.280   0.293   0.296
 34 B2   64 B1   33 A2   67 A1   68 A1   65 B1   66 B1   34 A2                 
  0.319   0.322   0.323   0.339   0.344   0.349   0.356   0.360
 67 B1   69 A1   35 B2   70 A1   36 B2   68 B1   71 A1   35 A2                 
  0.363   0.363   0.364   0.377   0.390   0.394   0.398   0.412
 36 A2   69 B1   37 B2   72 A1   73 A1   37 A2   70 B1   38 B2                 
  0.416   0.423   0.426   0.429   0.430   0.435   0.443   0.451
 71 B1   74 A1   39 B2   38 A2   72 B1   73 B1   39 A2   75 A1                 
  0.472   0.483   0.485   0.491   0.496   0.505   0.506   0.521
 76 A1   77 A1   74 B1   75 B1   40 B2   41 B2   78 A1   40 A2                 
  0.528   0.532   0.544   0.546   0.551   0.554   0.555   0.569
 79 A1   76 B1   77 B1   42 B2   41 A2   78 B1   80 A1   81 A1                 
  0.585   0.596   0.597   0.627   0.669   0.676   0.686   0.697
 79 B1   42 A2   80 B1   82 A1   83 A1   81 B1   43 B2   84 A1                 
  0.720   0.724   0.796   0.819   0.836   0.845   0.883   1.086
 82 B1   83 B1   85 A1   84 B1   86 A1   85 B1   87 A1   88 A1                 
  1.767   1.774   1.829   1.880   1.932   2.235   2.282   2.322
 44 B2   89 A1   43 A2   90 A1   86 B1   45 B2   91 A1   87 B1                 
  4.774   5.008   5.111   5.587   5.592   5.599   5.617   5.618
 92 A1   88 B1   93 A1   46 B2   94 A1   89 B1   44 A2   90 B1                 
  5.650   5.650   6.202   6.762   6.770   6.887   7.403   7.478
 47 B2   95 A1   96 A1   97 A1   91 B1   92 B1   93 B1   48 B2                 
  7.513   7.656   7.686   7.753   7.797   7.797   8.481   8.890
 98 A1   99 A1   49 B2   45 A2   94 B1  100 A1   95 B1  101 A1                 
  9.034  10.325  10.378  10.761
102 A1   96 B1  103 A1   97 B1                                                 
 --------------------------------------------------------------

          Ground-State Mulliken Net Atomic Charges

     Atom                 Charge (a.u.)
  ----------------------------------------
      1 H                     0.303599
      2 Au                   -0.053959
      3 Au                    0.198938
      4 Au                    0.198271
      5 Au                    0.085181
      6 Au                   -0.040214
      7 Au                   -0.040017
      8 Au                   -0.053959
      9 Au                    0.198938
     10 Au                    0.198271
     11 Au                    0.085181
     12 Au                   -0.040214
     13 Au                   -0.040017
  ----------------------------------------
  Sum of atomic charges =     1.000000

 -----------------------------------------------------------------
                    Cartesian Multipole Moments
 -----------------------------------------------------------------
    Charge (ESU x 10^10)
                 4.8032
    Dipole Moment (Debye)
         X      -0.0000000485      Y       0.0000000000      Z       0.0261713191
       Tot       0.0261713191
    Quadrupole Moments (Debye-Ang)
        XX     -86.3295     XY      -0.0000     YY    -278.7869
        XZ       0.0000     YZ       0.0000     ZZ    -232.1437
    Octopole Moments (Debye-Ang^2)
       XXX      -0.0000    XXY      -0.0000    XYY      -0.0000
       YYY       0.0000    XXZ       0.8810    XYZ       0.0000
       YYZ       0.0184    XZZ      -0.0000    YZZ      -0.0000
       ZZZ      -0.1229
    Hexadecapole Moments (Debye-Ang^3)
      XXXX  -35238.4945   XXXY      -0.0000   XXYY   -7617.7120
      XYYY       0.0000   YYYY    -336.3095   XXXZ       0.0000
      XXYZ       0.0000   XYYZ       0.0000   YYYZ       0.0000
      XXZZ   -6383.3939   XYZZ      -0.0000   YYZZ    -904.7076
      XZZZ       0.0000   YZZZ      -0.0000   ZZZZ   -4540.1555
 -----------------------------------------------------------------
 Electrostatic potential will be computed using the SCF density
   ... ESP will be evaluated on the $plots plotting cube.
 ESP points per batch =         5000
   ... The data will be saved in the file plot.esp
  --- DONE ESP SUMMARY ---
 Total job time:  13.48s(wall), 230.77s(cpu) 
 Mon Aug 21 15:40:46 2023

        *************************************************************
        *                                                           *
        *  Thank you very much for using Q-Chem.  Have a nice day.  *
        *                                                           *
        *************************************************************


