                  Welcome to Q-Chem
     A Quantum Leap Into The Future Of Chemistry


 Q-Chem 5.4 (devel), Q-Chem, Inc., Pleasanton, CA (2021)

 E. Epifanovsky,  A. T. B. Gilbert,  Xintian Feng,  Joonho Lee,  Yuezhi Mao,  
 N. Mardirossian,  P. Pokhilko,  A. White,  M. Wormit,  M. P. Coons,  
 A. L. Dempwolff,  Zhengting Gan,  D. Hait,  P. R. Horn,  L. D. Jacobson,  
 I. Kaliman,  J. Kussmann,  A. W. Lange,  Ka Un Lao,  D. S. Levine,  Jie Liu,  
 S. C. McKenzie,  A. F. Morrison,  K. Nanda,  F. Plasser,  D. R. Rehn,  
 M. L. Vidal,  Zhi-Qiang You,  Ying Zhu,  B. Alam,  B. Albrecht,  
 A. Aldossary,  E. Alguire,  J. H. Andersen,  D. Barton,  K. Begam,  A. Behn,  
 Y. A. Bernard,  E. J. Berquist,  H. Burton,  A. Carreras,  K. Carter-Fenk,  
 R. Chakraborty,  A. D. Chien,  K. D. Closser,  V. Cofer-Shabica,  
 S. Dasgupta,  Jia Deng,  M. de Wergifosse,  M. Diedenhofen,  Hainam Do,  
 S. Ehlert,  Po-Tung Fang,  S. Fatehi,  Qingguo Feng,  T. Friedhoff,  
 J. Gayvert,  Qinghui Ge,  G. Gidofalvi,  M. Goldey,  J. Gomes,  
 C. Gonzalez-Espinoza,  S. Gulania,  A. Gunina,  M. W. D. Hanson-Heine,  
 P. H. P. Harbach,  A. W. Hauser,  M. F. Herbst,  M. Hernandez Vera,  
 M. Hodecker,  Z. C. Holden,  S. Houck,  Xunkun Huang,  Kerwin Hui,  
 B. C. Huynh,  M. Ivanov,  Hyunjun Ji,  Hanjie Jiang,  B. Kaduk,  S. Kaehler,  
 K. Khistyaev,  Jaehoon Kim,  P. Klunzinger,  Z. Koczor-Benda,  
 Joong Hoon Koh,  D. Kosenkov,  L. Koulias,  T. Kowalczyk,  C. M. Krauter,  
 K. Kue,  A. Kunitsa,  T. Kus,  A. Landau,  K. V. Lawler,  D. Lefrancois,  
 S. Lehtola,  Rain Li,  Yi-Pei Li,  Jiashu Liang,  M. Liebenthal,  
 Hung-Hsuan Lin,  You-Sheng Lin,  Fenglai Liu,  Kuan-Yu Liu,  
 M. Loipersberger,  A. Luenser,  A. Manjanath,  P. Manohar,  E. Mansoor,  
 S. F. Manzer,  Shan-Ping Mao,  A. V. Marenich,  T. Markovich,  S. Mason,  
 S. A. Maurer,  P. F. McLaughlin,  M. F. S. J. Menger,  J.-M. Mewes,  
 S. A. Mewes,  P. Morgante,  J. W. Mullinax,  K. J. Oosterbaan,  G. Paran,  
 Alexander C. Paul,  Suranjan K. Paul,  F. Pavosevic,  Zheng Pei,  S. Prager,  
 E. I. Proynov,  E. Ramos,  B. Rana,  A. E. Rask,  A. Rettig,  R. M. Richard,  
 F. Rob,  E. Rossomme,  T. Scheele,  M. Scheurer,  M. Schneider,  
 N. Sergueev,  S. M. Sharada,  W. Skomorowski,  D. W. Small,  C. J. Stein,  
 Yu-Chuan Su,  E. J. Sundstrom,  Zhen Tao,  J. Thirman,  T. Tsuchimochi,  
 N. M. Tubman,  S. P. Veccham,  O. Vydrov,  J. Wenzel,  J. Witte,  A. Yamada,  
 Kun Yao,  S. Yeganeh,  S. R. Yost,  A. Zech,  Igor Ying Zhang,  Xing Zhang,  
 Yu Zhang,  D. Zuev,  A. Aspuru-Guzik,  A. T. Bell,  N. A. Besley,  
 K. B. Bravaya,  B. R. Brooks,  D. Casanova,  Jeng-Da Chai,  S. Coriani,  
 C. J. Cramer,  A. E. DePrince, III,  R. A. DiStasio Jr.,  A. Dreuw,  
 B. D. Dunietz,  T. R. Furlani,  W. A. Goddard III,  S. Grimme,  
 S. Hammes-Schiffer,  T. Head-Gordon,  W. J. Hehre,  Chao-Ping Hsu,  
 T.-C. Jagau,  Yousung Jung,  A. Klamt,  Jing Kong,  D. S. Lambrecht,  
 WanZhen Liang,  N. J. Mayhall,  C. W. McCurdy,  J. B. Neaton,  
 C. Ochsenfeld,  J. A. Parkhill,  R. Peverati,  V. A. Rassolov,  Yihan Shao,  
 L. V. Slipchenko,  T. Stauch,  R. P. Steele,  J. E. Subotnik,  
 A. J. W. Thom,  A. Tkatchenko,  D. G. Truhlar,  T. Van Voorhis,  
 T. A. Wesolowski,  K. B. Whaley,  H. L. Woodcock III,  P. M. Zimmerman,  
 S. Faraji,  P. M. W. Gill,  M. Head-Gordon,  J. M. Herbert,  A. I. Krylov

 Additional authors for Version 5.4.1: 
 S. Kotaru,  Shaozhi Li,  Xiangyuan Li,  F. Matz,  A. Molle,  Haisheng Ren,  
 Yingli Su,  Hung-Yi Tsai,  C. Utku,  Fang Wang

 Contributors to earlier versions of Q-Chem not listed above: 
 R. D. Adamson,  B. Austin,  R. Baer,  J. Baker,  G. J. O. Beran,  
 K. Brandhorst,  S. T. Brown,  E. F. C. Byrd,  A. K. Chakraborty,  
 G. K. L. Chan,  Chun-Min Chang,  Yunqing Chen,  C.-L. Cheng,  
 Siu Hung Chien,  D. M. Chipman,  D. L. Crittenden,  H. Dachsel,  
 R. J. Doerksen,  A. D. Dutoi,  R. G. Edgar,  J. Fosso-Tande,  
 L. Fusti-Molnar,  D. Ghosh,  A. Ghysels,  A. Golubeva-Zadorozhnaya,  
 J. Gonthier,  M. S. Gordon,  S. R. Gwaltney,  G. Hawkins,  J. E. Herr,  
 A. Heyden,  S. Hirata,  E. G. Hohenstein,  G. Kedziora,  F. J. Keil,  
 C. Kelley,  Jihan Kim,  R. A. King,  R. Z. Khaliullin,  P. P. Korambath,  
 W. Kurlancheek,  A. Laurent,  A. M. Lee,  M. S. Lee,  S. V. Levchenko,  
 Ching Yeh Lin,  D. Liotard,  E. Livshits,  R. C. Lochan,  I. Lotan,  
 L. A. Martinez-Martinez,  P. E. Maslen,  N. Nair,  D. P. O'Neill,  
 D. Neuhauser,  E. Neuscamman,  C. M. Oana,  R. Olivares-Amaya,  R. Olson,  
 T. M. Perrine,  B. Peters,  P. A. Pieniazek,  A. Prociuk,  Y. M. Rhee,  
 J. Ritchie,  M. A. Rohrdanz,  E. Rosta,  N. J. Russ,  H. F. Schaefer III,  
 M. W. Schmidt,  N. E. Schultz,  S. Sharma,  N. Shenvi,  C. D. Sherrill,  
 A. C. Simmonett,  A. Sodt,  T. Stein,  D. Stuck,  K. S. Thanthiriwatte,  
 V. Vanovschi,  L. Vogt,  Tao Wang,  A. Warshel,  M. A. Watson,  
 C. F. Williams,  Q. Wu,  X. Xu,  Jun Yang,  W. Zhang,  Yan Zhao

 Please cite Q-Chem as follows:
 Y. Shao et al., Mol. Phys. 113, 184-215 (2015)
 DOI: 10.1080/00268976.2014.952696

 Q-Chem 5.4.1 for Intel X86 EM64T Linux

 Parts of Q-Chem use Armadillo 9.900.5 (Nocturnal Misbehaviour).
 http://arma.sourceforge.net/

 Q-Chem begins on Fri Aug  4 08:33:56 2023  

 Host: p09r12n31.grace.hpc.yale.internal
0

     Scratch files written to /home/tl686/palmer_scratch/qchem_dev/scratch/qchem256663//
 Processing $rem in /home/tl686/qchem_dev/qchem/config/preferences:
 Processing $rem in /home/tl686/.qchemrc:

 Checking the input file for inconsistencies... 	...done.

--------------------------------------------------------------
User input:
--------------------------------------------------------------
$molecule
+1 1
H      0.000000    0.000000    3.9219999999999997
Au     0.000000    0.000000    2.222000
Au    -1.392000    0.000000    0.000000
Au     1.393000    0.000000    0.000000
Au     0.000000    0.000000   -2.411000
Au     2.626000    0.000000   -2.315000
Au    -2.614000    0.000000   -2.320000
Au     0.000000    0.000000    5.622
Au    -1.392000    0.000000    7.843999999999999
Au     1.393000    0.000000    7.843999999999999
Au     0.000000    0.000000    10.254999999999999
Au     2.626000    0.000000    10.158999999999999
Au    -2.614000    0.000000    10.164
$end
$rem
jobtype = sp
sym_ignore = false
input_bohr = false
method = b3lyp
SCF_ALGORITHM = GDM
MAX_SCF_CYCLES=500
SCF_CONVERGENCE = 8
MEM_TOTAL = 100000 
ECP = fit-LANL2DZ
basis = general
NEO = TRUE
NEO_EPC = epc172
NEO_PURECART = 1111 
NEO_VPP = 0
NEO_N_SCF_CONVERGENCE = 8
NEO_E_CONV = 8
MAKE_CUBE_FILES = true
plots = true
$end


$basis
   H 0
   def2-qzvp
   ****
   Au 0
   LANL2DZ
   ****
$end

$neo_basis
H    1
S    1    1.000000
   5.973 1.0
S    1    1.000000
   10.645 1.0
S    1    1.000000
   17.943 1.0
S    1    1.000000
   28.950 1.0
P    1    1.000000
   7.604 1.0
P    1    1.000000
   14.701 1.0
P    1    1.000000
   23.308 1.0
D    1    1.000000
   9.011 1.0
D    1    1.000000
   19.787 1.0
F    1    1.000000
   10.914 1.0
F    1    1.000000
   20.985 1.0
****
$end

$neo_tdks
dt  0.1
maxiter 1
field_type delta
field_amp 0e-2
in_cavity false 2.01 2 1e-2 100
rt_thresh 2
moving_classical_nuclei false
moving_proton_basis_center false
save_per_iter 400
plt_params 80 -10.0 10.0
enforce_eh true
$end
--------------------------------------------------------------
 ----------------------------------------------------------------
             Standard Nuclear Orientation (Angstroms)
    I     Atom           X                Y                Z
 ----------------------------------------------------------------
    1      H       0.0000000000    -0.0000000000     0.0021643836
    2      Au     -1.7000000000    -0.0000000000     0.0021643836
    3      Au     -3.9220000000    -0.0000000000     1.3941643836
    4      Au     -3.9220000000     0.0000000000    -1.3908356164
    5      Au     -6.3330000000    -0.0000000000     0.0021643836
    6      Au     -6.2370000000     0.0000000000    -2.6238356164
    7      Au     -6.2420000000    -0.0000000000     2.6161643836
    8      Au      1.7000000000     0.0000000000     0.0021643836
    9      Au      3.9220000000    -0.0000000000     1.3941643836
   10      Au      3.9220000000     0.0000000000    -1.3908356164
   11      Au      6.3330000000     0.0000000000     0.0021643836
   12      Au      6.2370000000     0.0000000000    -2.6238356164
   13      Au      6.2420000000    -0.0000000000     2.6161643836
 ----------------------------------------------------------------
 Molecular Point Group                 C2v   NOp =  4
 Largest Abelian Subgroup              C2v   NOp =  4
 Nuclear Repulsion Energy =        2556.11451982 hartrees
 There are      114 alpha and      114 beta electrons
 Requested basis set is non-standard
 There are 106 shells and 294 basis functions

 Total QAlloc Memory Limit 100000 MB
 Mega-Array Size       188 MB
 MEM_STATIC part       192 MB

                       Distance Matrix (Angstroms)
             H (  1)   Au(  2)   Au(  3)   Au(  4)   Au(  5)   Au(  6)
   Au(  2)  1.700000
   Au(  3)  4.161700  2.622012
   Au(  4)  4.162035  2.622543  2.785000
   Au(  5)  6.333000  4.633000  2.783987  2.784487
   Au(  6)  6.767278  5.242160  4.637192  2.622883  2.627754
   Au(  7)  6.767242  5.240492  2.622153  4.630167  2.615583  5.240002
   Au(  8)  1.700000  3.400000  5.791766  5.792006  8.033000  8.360134
   Au(  9)  4.161700  5.791766  7.844000  8.323735 10.349043 10.924724
   Au( 10)  4.162035  5.792006  8.323735  7.844000 10.349177 10.233551
   Au( 11)  6.333000  8.033000 10.349043 10.349177 12.666000 12.841370
   Au( 12)  6.767278  8.360134 10.924724 10.233551 12.841370 12.474000
   Au( 13)  6.767242  8.361122 10.237196 10.925335 12.843816 13.534513
             Au(  7)   Au(  8)   Au(  9)   Au( 10)   Au( 11)   Au( 12)
   Au(  8)  8.361122
   Au(  9) 10.237196  2.622012
   Au( 10) 10.925335  2.622543  2.785000
   Au( 11) 12.843816  4.633000  2.783987  2.784487
   Au( 12) 13.534513  5.242160  4.637192  2.622883  2.627754
   Au( 13) 12.484000  5.240492  2.622153  4.630167  2.615583  5.240002


 A cutoff of  1.0D-12 yielded   4363 shell pairs
 There are     32919 function pairs (     39354 Cartesian)
 Requested basis set is non-standard
 Compound shells will be simplified
 There are 106 shells and 294 basis functions
 A cutoff of  1.0D-12 yielded   4363 shell pairs
 There are     32919 function pairs (     39354 Cartesian)
 Smallest overlap matrix eigenvalue = 4.53E-04

 Scale SEOQF with 1.000000e-02/1.000000e-01/1.000000e-01

 Standard Electronic Orientation quadrupole field applied
 Nucleus-field energy     =    -0.0000000511 hartrees
 ================ Generating on-the-fly SAD Guess ================
Attempting to make child job directory: /home/tl686/palmer_scratch/qchem_dev/scratch/qchem256663//Frg1/
Attempting to make child job directory: /home/tl686/palmer_scratch/qchem_dev/scratch/qchem256663//Frg2/
Creating input file /home/tl686/palmer_scratch/qchem_dev/scratch/qchem256663/Frg1.input
using default PutDataFrgm: nothing
calling putenv with: QCSCRATCH=/home/tl686/palmer_scratch/qchem_dev/scratch/qchem256663/ 
Spawning Job For Fragment 0
Done Job For Fragment 0
calling putenv with: QCSCRATCH=/home/tl686/palmer_scratch/qchem_dev/scratch 
calling putenv with: QCTHREADS=32 
Creating input file /home/tl686/palmer_scratch/qchem_dev/scratch/qchem256663/Frg2.input
using default PutDataFrgm: nothing
calling putenv with: QCSCRATCH=/home/tl686/palmer_scratch/qchem_dev/scratch/qchem256663/ 
Spawning Job For Fragment 1
Done Job For Fragment 1
calling putenv with: QCSCRATCH=/home/tl686/palmer_scratch/qchem_dev/scratch 
calling putenv with: QCTHREADS=32 
 Time for running child jobs:  CPU 0.01 s  wall 3.53 s
 ============= Method Specific SAD Guess Constructed =============
 Guess from on-the-fly superposition of atomic densities
 Warning: Energy on first SCF cycle will be non-variational

 -----------------------------------------------------------------------
  General SCF calculation program by
  Eric Jon Sundstrom, Paul Horn, Yuezhi Mao, Dmitri Zuev, Alec White,
  David Stuck, Shaama M.S., Shane Yost, Joonho Lee, David Small,
  Daniel Levine, Susi Lehtola, Hugh Burton, Evgeny Epifanovsky,
  Bang C. Huynh
 -----------------------------------------------------------------------
 Exchange:     0.2000 Hartree-Fock + 0.0800 Slater + 0.7200 B88
 Correlation:  0.1900 VWN1RPA + 0.8100 LYP
 Using SG-1 standard quadrature grid
 using 32 threads for integral computing
 -------------------------------------------------------
 OpenMP Integral computing Module                
 Release: version 1.0, May 2013, Q-Chem Inc. Pittsburgh 
 -------------------------------------------------------
 A restricted SCF calculation will be
 performed using Roothaan-Hall, GDM
 SCF converges when RMS gradient is below 1.0e-08
 ---------------------------------------
  Cycle       Energy         DIIS error
 ---------------------------------------
    1   -1628.1809442485      1.65e-02  Roothaan Step
 ---------------------------------------
  Cycle       Energy        RMS Gradient
 ---------------------------------------
    1   -1626.2144565148      4.46e-02   Normal BFGS step
    2   -1626.1865543439      7.78e-02  Line search: overstep
    3   -1626.2593099188      1.25e-02   Normal BFGS step
    4   -1626.2589605992      3.03e-02  Line search: overstep
    5   -1626.2616953460      1.01e-02   Normal BFGS step
    6   -1626.2620740334      1.20e-02   Normal BFGS step
    7   -1626.2623256676      7.04e-03   Normal BFGS step
    8   -1626.2624126015      1.81e-03   Normal BFGS step
    9   -1626.2624889564      6.03e-04   Normal BFGS step
   10   -1626.2624929000      4.83e-04   Normal BFGS step
   11   -1626.2624941148      2.87e-04   Normal BFGS step
   12   -1626.2624948966      1.92e-04   Normal BFGS step
   13   -1626.2624950410      6.06e-05   Normal BFGS step
   14   -1626.2624950512      7.09e-05   Normal BFGS step
   15   -1626.2624950772      3.70e-05   Normal BFGS step
   16   -1626.2624950823      1.15e-05   Normal BFGS step
   17   -1626.2624950843      1.63e-06   Normal BFGS step
   18   -1626.2624950844      5.56e-07   Normal BFGS step
   19   -1626.2624950844      2.30e-07   Normal BFGS step
  GDM::WARNING energy changes are now smaller than effective accuracy.
  GDM::        calculation will continue, but THRESH should be increased
  GDM::        or SCF_CONVERGENCE decreased. 
  GDM::        effective_thresh = 3.41e-09
   20   -1626.2624950843      2.64e-07   Normal BFGS step
  GDM::WARNING energy changes are now smaller than effective accuracy.
  GDM::        calculation will continue, but THRESH should be increased
  GDM::        or SCF_CONVERGENCE decreased. 
  GDM::        effective_thresh = 3.41e-09
   21   -1626.2624950842      6.67e-08   Normal BFGS step
  GDM::WARNING energy changes are now smaller than effective accuracy.
  GDM::        calculation will continue, but THRESH should be increased
  GDM::        or SCF_CONVERGENCE decreased. 
  GDM::        effective_thresh = 3.41e-09
   22   -1626.2624950841      2.30e-08   Normal BFGS step
   23   -1626.2624950845      2.92e-08   Normal BFGS step
  GDM::WARNING energy changes are now smaller than effective accuracy.
  GDM::        calculation will continue, but THRESH should be increased
  GDM::        or SCF_CONVERGENCE decreased. 
  GDM::        effective_thresh = 3.41e-09
   24   -1626.2624950841      3.70e-08   Normal BFGS step
  GDM::WARNING energy changes are now smaller than effective accuracy.
  GDM::        calculation will continue, but THRESH should be increased
  GDM::        or SCF_CONVERGENCE decreased. 
  GDM::        effective_thresh = 3.41e-09
   25   -1626.2624950844      6.07e-09  Convergence criterion met
 ---------------------------------------
 SCF time:   CPU 930.59s  wall 34.00s 
 SCF   energy in the final basis set =    -1626.2624950844
 Total energy in the final basis set =    -1626.2624950844

 Q-Chem warning in module /home/tl686/qchem_dev/qchem/libsym/oriorb.F, line  204:

 Quadrupole field failed to resolve orbital degeneracies.


 Q-Chem warning in module /home/tl686/qchem_dev/qchem/libsym/oriorb.F, line  204:

 Quadrupole field failed to resolve orbital degeneracies.


 ---------------------------------------
 Restricted NEO-SCF calculation
 ---------------------------------------
 VPP is set to false! Use this only in the case of one quantum hydrogen
 This NEO calculation is using proton isotope
 Electronic basis set linear dependency threshold: 10E-6.0000000000
 Nuclear basis set linear dependency threshold: 10E-5.0000000000
 2 particle integral threshold: 10E-12
 Requested basis set is non-standard
 There are 11 shells and 37 basis functions
 NEO centers: 1 
charge 0.0000000000
charge 19.0000000000
charge 19.0000000000
charge 19.0000000000
charge 19.0000000000
charge 19.0000000000
charge 19.0000000000
charge 19.0000000000
charge 19.0000000000
charge 19.0000000000
charge 19.0000000000
charge 19.0000000000
charge 19.0000000000
There are 1 number of quantum nuclei
 Number of electronic ao: 294  Number of electronic mo294
 Number of nuclear ao: 37  Number of nuclear mo37
 Exchange:     0.2000 Hartree-Fock + 0.0800 Slater + 0.7200 B88
 Correlation:  0.1900 VWN1RPA + 0.8100 LYP
 Using SG-1 standard quadrature grid
 Grid_batch_sz128
 Dft_grid_thresh 12
 Grid/integral threshold: 10E-12
 Read electronic density from eSCF
 NEO-SCF calculation will be performed using Roothaan-Hall, GDM
 NEO-SCF Cycles 1
 Nuclear Block
 ---------------------------------------
  Cycle       Energy        RMS Gradient
 ---------------------------------------
    1    2524.6441787231      2.58e-15   Normal BFGS step
    2    2524.6441787231      2.58e-15  Convergence criterion met
 Electronic Block
 ---------------------------------------
  Cycle       Energy        RMS Gradient
 ---------------------------------------
    1   -1626.2233193006      7.88e-03   Normal BFGS step
    2   -1626.2229392658      1.67e-02  Line search: overstep
    3   -1626.2235168597      2.76e-03   Normal BFGS step
    4   -1626.2234990868      2.76e-03  Line search: overstep
    5   -1626.2235383109      1.11e-03   Normal BFGS step
    6   -1626.2235418779      5.16e-04   Normal BFGS step
    7   -1626.2235424124      3.26e-04   Normal BFGS step
    8   -1626.2235431272      9.30e-05   Normal BFGS step
    9   -1626.2235432003      2.79e-05   Normal BFGS step
   10   -1626.2235432279      1.58e-05   Normal BFGS step
   11   -1626.2235432304      1.12e-05   Normal BFGS step
   12   -1626.2235432316      9.15e-06   Normal BFGS step
   13   -1626.2235432320      3.10e-06   Normal BFGS step
   14   -1626.2235432321      7.49e-07   Normal BFGS step
   15   -1626.2235432322      6.89e-07   Normal BFGS step
   16   -1626.2235432322      6.39e-07   Normal BFGS step
   17   -1626.2235432322      1.50e-07   Normal BFGS step
   18   -1626.2235432322      3.99e-07   Normal BFGS step
   19   -1626.2235432322      5.15e-07   Normal BFGS step
   20   -1626.2235432322      2.16e-08   Normal BFGS step
   21   -1626.2235432322      1.83e-08   Normal BFGS step
   22   -1626.2235432322      1.30e-08   Normal BFGS step
   23   -1626.2235432322      7.05e-09   Normal BFGS step
   24   -1626.2235432322      7.05e-09  Convergence criterion met
 NEO-SCF Cycles 2
 Nuclear Block
 ---------------------------------------
  Cycle       Energy        RMS Gradient
 ---------------------------------------
    1   -1626.2451904679      8.64e-02   Normal BFGS step
    2   -1626.2507852412      2.48e-02   Normal BFGS step
    3   -1626.2513493071      4.60e-03   Normal BFGS step
    4   -1626.2513704019      9.85e-04   Normal BFGS step
    5   -1626.2513709845      1.25e-04   Normal BFGS step
    6   -1626.2513710029      7.14e-06   Normal BFGS step
    7   -1626.2513710029      9.62e-07   Normal BFGS step
    8   -1626.2513710029      3.90e-08   Normal BFGS step
    9   -1626.2513710029      9.68e-09   Normal BFGS step
   10   -1626.2513710029      9.68e-09  Convergence criterion met
 Electronic Block
 ---------------------------------------
  Cycle       Energy        RMS Gradient
 ---------------------------------------
    1   -1626.2515741948      1.48e-03   Normal BFGS step
    2   -1626.2515609317      3.42e-03  Line search: overstep
    3   -1626.2515810371      5.05e-04   Normal BFGS step
    4   -1626.2515806643      4.91e-04  Line search: overstep
    5   -1626.2515819657      2.22e-04   Normal BFGS step
    6   -1626.2515820873      1.02e-04   Normal BFGS step
    7   -1626.2515821364      5.96e-05   Normal BFGS step
    8   -1626.2515821551      2.72e-05   Normal BFGS step
    9   -1626.2515821638      5.12e-06   Normal BFGS step
   10   -1626.2515821642      3.98e-06   Normal BFGS step
   11   -1626.2515821645      1.88e-06   Normal BFGS step
   12   -1626.2515821645      2.21e-06   Normal BFGS step
   13   -1626.2515821646      2.07e-07   Normal BFGS step
   14   -1626.2515821646      2.58e-07   Normal BFGS step
   15   -1626.2515821646      3.84e-07   Normal BFGS step
   16   -1626.2515821646      8.17e-07   Normal BFGS step
   17   -1626.2515821646      6.41e-08   Normal BFGS step
   18   -1626.2515821646      1.01e-07   Normal BFGS step
   19   -1626.2515821646      1.34e-09   Normal BFGS step
   20   -1626.2515821646      1.34e-09  Convergence criterion met
 NEO-SCF Cycles 3
 Nuclear Block
 ---------------------------------------
  Cycle       Energy        RMS Gradient
 ---------------------------------------
    1   -1626.2515788640      5.91e-03   Normal BFGS step
    2   -1626.2516020979      1.39e-03   Normal BFGS step
    3   -1626.2516045311      2.90e-04   Normal BFGS step
    4   -1626.2516046025      6.33e-05   Normal BFGS step
    5   -1626.2516046058      2.02e-06   Normal BFGS step
    6   -1626.2516046058      2.98e-07   Normal BFGS step
    7   -1626.2516046058      4.05e-08   Normal BFGS step
    8   -1626.2516046058      8.76e-09   Normal BFGS step
    9   -1626.2516046058      8.76e-09  Convergence criterion met
 Electronic Block
 ---------------------------------------
  Cycle       Energy        RMS Gradient
 ---------------------------------------
    1   -1626.2516068452      3.25e-04   Normal BFGS step
    2   -1626.2516061767      7.49e-04  Line search: overstep
    3   -1626.2516071772      1.11e-04   Normal BFGS step
    4   -1626.2516071511      1.10e-04   Normal BFGS step
    5   -1626.2516072210      2.12e-05   Normal BFGS step
    6   -1626.2516072186      2.05e-05   Normal BFGS step
    7   -1626.2516072235      3.43e-06   Normal BFGS step
    8   -1626.2516072235      2.72e-06   Normal BFGS step
    9   -1626.2516072237      3.68e-07   Normal BFGS step
   10   -1626.2516072237      5.62e-07   Normal BFGS step
   11   -1626.2516072237      1.77e-07   Normal BFGS step
   12   -1626.2516072237      1.41e-07   Normal BFGS step
   13   -1626.2516072237      6.02e-08   Normal BFGS step
   14   -1626.2516072237      8.92e-08   Normal BFGS step
   15   -1626.2516072237      3.48e-08   Normal BFGS step
  GDM::WARNING energy changes are now smaller than effective accuracy.
  GDM::        calculation will continue, but THRESH should be increased
  GDM::        or SCF_CONVERGENCE decreased. 
  GDM::        effective_thresh = 2.05e-09
   16   -1626.2516072237      1.14e-07   Normal BFGS step
   17   -1626.2516072237      1.47e-09   Normal BFGS step
   18   -1626.2516072237      1.47e-09  Convergence criterion met
 NEO-SCF Cycles 4
 Nuclear Block
 ---------------------------------------
  Cycle       Energy        RMS Gradient
 ---------------------------------------
    1   -1626.2516071834      6.82e-04   Normal BFGS step
    2   -1626.2516074995      1.62e-04   Normal BFGS step
    3   -1626.2516075334      3.60e-05   Normal BFGS step
    4   -1626.2516075344      6.80e-06   Normal BFGS step
    5   -1626.2516075344      4.12e-07   Normal BFGS step
    6   -1626.2516075344      1.08e-07   Normal BFGS step
    7   -1626.2516075344      1.84e-08   Normal BFGS step
    8   -1626.2516075344      3.73e-09   Normal BFGS step
    9   -1626.2516075344      3.73e-09  Convergence criterion met
 Electronic Block
 ---------------------------------------
  Cycle       Energy        RMS Gradient
 ---------------------------------------
    1   -1626.2516075662      3.90e-05   Normal BFGS step
    2   -1626.2516075566      8.97e-05  Line search: overstep
    3   -1626.2516075709      1.32e-05   Normal BFGS step
    4   -1626.2516075705      1.31e-05   Normal BFGS step
    5   -1626.2516075715      2.54e-06   Normal BFGS step
    6   -1626.2516075715      2.44e-06   Normal BFGS step
    7   -1626.2516075716      4.01e-07   Normal BFGS step
    8   -1626.2516075716      3.10e-07   Normal BFGS step
    9   -1626.2516075716      1.16e-07   Normal BFGS step
   10   -1626.2516075716      1.87e-07   Normal BFGS step
   11   -1626.2516075716      1.75e-08   Normal BFGS step
   12   -1626.2516075716      2.18e-08   Normal BFGS step
   13   -1626.2516075716      1.79e-08   Normal BFGS step
   14   -1626.2516075716      4.60e-08   Normal BFGS step
   15   -1626.2516075716      2.21e-08   Normal BFGS step
   16   -1626.2516075716      2.36e-08   Normal BFGS step
  GDM::WARNING energy changes are now smaller than effective accuracy.
  GDM::        calculation will continue, but THRESH should be increased
  GDM::        or SCF_CONVERGENCE decreased. 
  GDM::        effective_thresh = 2.05e-09
   17   -1626.2516075716      4.07e-10   Normal BFGS step
   18   -1626.2516075716      4.07e-10  Convergence criterion met
 NEO-SCF Cycles 5
 Nuclear Block
 ---------------------------------------
  Cycle       Energy        RMS Gradient
 ---------------------------------------
    1   -1626.2516075652      1.02e-04   Normal BFGS step
    2   -1626.2516075752      2.93e-05   Normal BFGS step
    3   -1626.2516075763      5.78e-06   Normal BFGS step
    4   -1626.2516075764      5.19e-07   Normal BFGS step
    5   -1626.2516075764      1.37e-07   Normal BFGS step
    6   -1626.2516075764      3.84e-08   Normal BFGS step
    7   -1626.2516075764      6.43e-09   Normal BFGS step
    8   -1626.2516075764      6.43e-09  Convergence criterion met
 Electronic Block
 ---------------------------------------
  Cycle       Energy        RMS Gradient
 ---------------------------------------
    1   -1626.2516075772      4.69e-06   Normal BFGS step
    2   -1626.2516075770      1.08e-05   Normal BFGS step
    3   -1626.2516075773      1.73e-06   Normal BFGS step
    4   -1626.2516075773      2.89e-06   Normal BFGS step
    5   -1626.2516075773      3.51e-07   Normal BFGS step
    6   -1626.2516075773      7.05e-07   Normal BFGS step
    7   -1626.2516075773      6.85e-08   Normal BFGS step
    8   -1626.2516075773      1.29e-07   Normal BFGS step
    9   -1626.2516075773      1.36e-08   Normal BFGS step
   10   -1626.2516075773      1.49e-08   Normal BFGS step
   11   -1626.2516075773      1.84e-09   Normal BFGS step
   12   -1626.2516075773      1.84e-09  Convergence criterion met

 E(NEO-SCF) = -1626.2516075773

 E(NEO-SCF excluding KE quantum protons) = -1626.2598454453
 NEO SCF time:       CPU 9429.26s  wall 326.30s 

 ---------------------------------------
 Electronic Orbital Energies (a.u.)
 ---------------------------------------
 Alpha MOs
  -- Occupied --
-4.3097126 -4.3096839 -4.2954570 -4.2954532 -4.2941005 -4.2940988 -4.2939050 -4.2938938 
-4.2774888 -4.2774882 -4.2769516 -4.2769508 -2.4558019 -2.4552868 -2.4406156 -2.4405928 
-2.4369702 -2.4369676 -2.4354030 -2.4353800 -2.4330785 -2.4330752 -2.4308629 -2.4308606 
-2.4297913 -2.4297609 -2.4263341 -2.4263321 -2.4249367 -2.4249358 -2.4189406 -2.4189406 
-2.4183547 -2.4183542 -2.4181034 -2.4181031 -2.4164255 -2.4164255 -2.4152478 -2.4152476 
-2.4106900 -2.4106900 -2.4100490 -2.4100489 -2.4027413 -2.4027412 -2.4022813 -2.4022813 
-0.6104329 -0.5475184 -0.5352437 -0.5345682 -0.5329371 -0.5313891 -0.5061001 -0.5058132 
-0.5033252 -0.4945016 -0.4918469 -0.4907502 -0.4894086 -0.4867277 -0.4864454 -0.4794589 
-0.4793727 -0.4666599 -0.4664270 -0.4582841 -0.4565457 -0.4559247 -0.4549361 -0.4444002 
-0.4441092 -0.4432786 -0.4407183 -0.4377754 -0.4354133 -0.4347333 -0.4335712 -0.4324284 
-0.4279190 -0.4272891 -0.4269947 -0.4269853 -0.4249688 -0.4236652 -0.4236505 -0.4230047 
-0.4175095 -0.4173880 -0.4150812 -0.4150476 -0.4131934 -0.4117417 -0.4076102 -0.4075416 
-0.4074039 -0.4062745 -0.4048149 -0.4020029 -0.4014966 -0.3997900 -0.3995712 -0.3994025 
-0.3988785 -0.3957769 -0.3957769 -0.3894801 -0.3894504 -0.3879833 -0.3868935 -0.3611961 
-0.3610880 -0.3552518 
  -- Virtual --
-0.3035799 -0.2260181 -0.2184718 -0.2181386 -0.2177367 -0.2023680 -0.1688911 -0.1619686 
-0.1592360 -0.1301815 -0.1201922 -0.1184031 -0.1026643 -0.1018967 -0.1015634 -0.1007554 
-0.1001465 -0.0939607 -0.0856819 -0.0792496 -0.0437868 -0.0432739 -0.0372923 -0.0363636 
-0.0361849 -0.0318957 -0.0316715 -0.0291815 -0.0268549 -0.0244192 -0.0234856 -0.0169447 
-0.0169312 -0.0140465 -0.0076444 -0.0070877  0.0047814  0.0065933  0.0089729  0.0107707 
 0.0131782  0.0144589  0.0220806  0.0235405  0.0239670  0.0289050  0.0333068  0.0338835 
 0.0366867  0.0371767  0.0417440  0.0455225  0.0560520  0.0638365  0.0766739  0.0819057 
 0.0826957  0.0887173  0.0902415  0.0918229  0.0945776  0.1039926  0.1075640  0.1115135 
 0.1120777  0.1310410  0.1325829  0.1408760  0.1523711  0.1650023  0.1672545  0.1790206 
 0.1863795  0.2143613  0.2352194  0.2370327  0.2494287  0.2662169  0.2665405  0.2671677 
 0.2679292  0.2694650  0.2718265  0.2731901  0.2788991  0.2839187  0.2988311  0.3019844 
 0.3203388  0.3281065  0.3360831  0.3371515  0.3405694  0.3479362  0.3511352  0.3606418 
 0.3642892  0.3647254  0.3670264  0.3794383  0.3849883  0.3976620  0.4014197  0.4120122 
 0.4195178  0.4250955  0.4253065  0.4282295  0.4392153  0.4426766  0.4530574  0.4555888 
 0.4710726  0.4821426  0.4863369  0.4922536  0.4983215  0.4999192  0.5157087  0.5232044 
 0.5252591  0.5306912  0.5446786  0.5499240  0.5503644  0.5530138  0.5538341  0.5562977 
 0.5993966  0.6143281  0.6152559  0.6226800  0.6317005  0.6523012  0.6879717  0.7057477 
 0.7088540  0.7585052  0.7788197  0.8294680  0.8320942  0.8450397  0.8602348  1.0144762 
 1.7211412  1.7320230  1.7657513  1.8577220  1.8632820  2.1832937  2.2345408  2.2913129 
 5.1183039  5.1760980  5.4885533  5.4993809  5.4994953  5.5314131  5.5318026  5.5674646 
 5.5949998  5.5950112  6.3445805  6.7233750  6.7789448  6.9275493  7.3691327  7.3736145 
 7.4516250  7.4994686  7.6317850  7.6748098  7.7080205  7.7467962  8.9458189  9.1463209 
 9.3786981 10.6093690 11.2904379 11.6907533 
 ---------------------------------------
 Nuclear Orbital Energies (a.u.)
 ---------------------------------------
  -- Occupied --
   -0.8105 
  -- Virtual --
   -0.8000    -0.7999    -0.7977    -0.7902    -0.7877    -0.7874    -0.7843    -0.7841 
   -0.7832    -0.7769    -0.7769    -0.7737    -0.7736    -0.7731    -0.7729    -0.7727 
   -0.7688    -0.7686    -0.7641    -0.7535    -0.7523    -0.7519    -0.7469    -0.7466 
   -0.7420    -0.7363    -0.7362    -0.7347    -0.7343    -0.7324    -0.7319    -0.7319 
   -0.7259    -0.7257    -0.7151    -0.7012 
 ---------------------------------------

 ---------------------------------------
 Electronic Orbital Energies (a.u.)
 ---------------------------------------
 Alpha MOs
  -- Occupied --
   -4.3097    -4.3097    -4.2955    -4.2955    -4.2941    -4.2941    -4.2939    -4.2939 
   -4.2775    -4.2775    -4.2770    -4.2770    -2.4558    -2.4553    -2.4406    -2.4406 
   -2.4370    -2.4370    -2.4354    -2.4354    -2.4331    -2.4331    -2.4309    -2.4309 
   -2.4298    -2.4298    -2.4263    -2.4263    -2.4249    -2.4249    -2.4189    -2.4189 
   -2.4184    -2.4184    -2.4181    -2.4181    -2.4164    -2.4164    -2.4152    -2.4152 
   -2.4107    -2.4107    -2.4100    -2.4100    -2.4027    -2.4027    -2.4023    -2.4023 
   -0.6104    -0.5475    -0.5352    -0.5346    -0.5329    -0.5314    -0.5061    -0.5058 
   -0.5033    -0.4945    -0.4918    -0.4908    -0.4894    -0.4867    -0.4864    -0.4795 
   -0.4794    -0.4667    -0.4664    -0.4583    -0.4565    -0.4559    -0.4549    -0.4444 
   -0.4441    -0.4433    -0.4407    -0.4378    -0.4354    -0.4347    -0.4336    -0.4324 
   -0.4279    -0.4273    -0.4270    -0.4270    -0.4250    -0.4237    -0.4237    -0.4230 
   -0.4175    -0.4174    -0.4151    -0.4150    -0.4132    -0.4117    -0.4076    -0.4075 
   -0.4074    -0.4063    -0.4048    -0.4020    -0.4015    -0.3998    -0.3996    -0.3994 
   -0.3989    -0.3958    -0.3958    -0.3895    -0.3895    -0.3880    -0.3869    -0.3612 
   -0.3611    -0.3553 
  -- Virtual --
   -0.3036    -0.2260    -0.2185    -0.2181    -0.2177    -0.2024    -0.1689    -0.1620 
   -0.1592    -0.1302    -0.1202    -0.1184    -0.1027    -0.1019    -0.1016    -0.1008 
   -0.1001    -0.0940    -0.0857    -0.0792    -0.0438    -0.0433    -0.0373    -0.0364 
   -0.0362    -0.0319    -0.0317    -0.0292    -0.0269    -0.0244    -0.0235    -0.0169 
   -0.0169    -0.0140    -0.0076    -0.0071     0.0048     0.0066     0.0090     0.0108 
    0.0132     0.0145     0.0221     0.0235     0.0240     0.0289     0.0333     0.0339 
    0.0367     0.0372     0.0417     0.0455     0.0561     0.0638     0.0767     0.0819 
    0.0827     0.0887     0.0902     0.0918     0.0946     0.1040     0.1076     0.1115 
    0.1121     0.1310     0.1326     0.1409     0.1524     0.1650     0.1673     0.1790 
    0.1864     0.2144     0.2352     0.2370     0.2494     0.2662     0.2665     0.2672 
    0.2679     0.2695     0.2718     0.2732     0.2789     0.2839     0.2988     0.3020 
    0.3203     0.3281     0.3361     0.3372     0.3406     0.3479     0.3511     0.3606 
    0.3643     0.3647     0.3670     0.3794     0.3850     0.3977     0.4014     0.4120 
    0.4195     0.4251     0.4253     0.4282     0.4392     0.4427     0.4531     0.4556 
    0.4711     0.4821     0.4863     0.4923     0.4983     0.4999     0.5157     0.5232 
    0.5253     0.5307     0.5447     0.5499     0.5504     0.5530     0.5538     0.5563 
    0.5994     0.6143     0.6153     0.6227     0.6317     0.6523     0.6880     0.7057 
    0.7089     0.7585     0.7788     0.8295     0.8321     0.8450     0.8602     1.0145 
    1.7211     1.7320     1.7658     1.8577     1.8633     2.1833     2.2345     2.2913 
    5.1183     5.1761     5.4886     5.4994     5.4995     5.5314     5.5318     5.5675 
    5.5950     5.5950     6.3446     6.7234     6.7789     6.9275     7.3691     7.3736 
    7.4516     7.4995     7.6318     7.6748     7.7080     7.7468     8.9458     9.1463 
    9.3787    10.6094    11.2904    11.6908 
 ---------------------------------------
 Nuclear Orbital Energies (a.u.)
 ---------------------------------------
  -- Occupied --
   -0.8105 
  -- Virtual --
   -0.8000    -0.7999    -0.7977    -0.7902    -0.7877    -0.7874    -0.7843    -0.7841 
   -0.7832    -0.7769    -0.7769    -0.7737    -0.7736    -0.7731    -0.7729    -0.7727 
   -0.7688    -0.7686    -0.7641    -0.7535    -0.7523    -0.7519    -0.7469    -0.7466 
   -0.7420    -0.7363    -0.7362    -0.7347    -0.7343    -0.7324    -0.7319    -0.7319 
   -0.7259    -0.7257    -0.7151    -0.7012 
 ---------------------------------------
Expectation value of proton 0 : 0.00000000 0.00000000 0.00428196
Protonic dipole moment: 
Dx: 0.0000000 DY: 0.0000000 Dz: 0.0042820 au
Electronic dipole moment: 
Dx: 0.0000001 DY: -0.0000000 Dz: 0.0073265 au
Total dipole moment: 
Dx: 0.0000001 DY: -0.0000000 Dz: 0.0106248 Total 0.0106248 au
Protonic quadrupole moment: 
Qx: 0.0227225 QY: 0.0277966 Qz: 0.0275605 au

Ground-State Mulliken Net Atomic Charges

     Atom                 Charge (a.u.)
  ----------------------------------------
      0                    -0.653067
      1                    0.487590
      2                    0.186606
      3                    0.186024
      4                    0.068832
      5                    -0.051389
      6                    -0.051129
      7                    0.487590
      8                    0.186606
      9                    0.186024
      10                    0.068832
      11                    -0.051389
      12                    -0.051129
----------------------------------------
 Sum of atomic charges =   1.000000
 

        *************************************************************
        *                                                           *
        *         Real-Time NEO TDDFT/Ehrenfest Calculations        *
        *                    Programmed by Tao E. Li                *
        *                                                           *
        *************************************************************

 Real-time simulation will be performed outside cavity!
 Real time propagation threshold is 1.000000e-02
 dt is 1.000000e-01 max_iter is 1.000000e+00
 field amplitude is 0.000000e+00
 field type is 0
 field direction is 3
 Apply hybrid HF/DFT calculation with xc kernel pbe_x and pbe_c
 DFT contribution is 8.000000e-01
 Apply EPC kernel epc172
 ########### ----- Copying info from converged SCF ----- ###########
 Exchange:     0.2000 Hartree-Fock + 0.0800 Slater + 0.7200 B88
 Correlation:  0.1900 VWN1RPA + 0.8100 LYP
 Using SG-1 standard quadrature grid
 By default setting threshold to 1.000000e-12
 Initializing Fock matrix...
 Regenerating fundamental basis
 E-field_direction is expected to have a size of 3 (like [0, 1, 0])
 E-field_direction is expected to have a size of 3 (like [0, 1, 0])
 Trying to build Fock matrix from density matrix...
!## Warning: ECP core pseudopotential is only compatible with fixed nuclei ##!
 End of building Fock matrix from density matrix...
 New SCF energy is -1.626251607577e+03
 Electronic fock matrix (alpha) max diff is 2.612883867603e-13
 Protonic   fock matrix max diff is 2.266913546523e-05
 The incoming field has direction of 
1.000000000000e+00
1.000000000000e+00
1.000000000000e+00
 Electric dipole moment value is   -1.0837e-07   2.9023e-15  -7.3265e-03
 Protonic dipole moment value is    3.4344e-10   2.6578e-15   4.2820e-03
coordinates of all nuclei are 
1.776442291850e-15 -3.212534412489e+00 -7.411505862225e+00 -7.411505862225e+00 -1.196763554958e+01 -1.178622184159e+01 -1.179567047221e+01 3.212534412489e+00 7.411505862225e+00 7.411505862225e+00 1.196763554958e+01 1.178622184159e+01 1.179567047221e+01
-7.554460206859e-31 -1.715629950040e-28 -8.807138968727e-28 9.145856119906e-29 -6.370635366433e-28 2.892161293767e-28 -1.540349525057e-27 1.700520066661e-28 -9.259254875032e-29 8.795799093214e-28 6.355525483054e-28 1.542518892547e-27 -2.860606857558e-28
4.090092160945e-03 4.090092160945e-03 2.634588858152e+00 -2.628298399955e+00 4.090092160945e-03 -4.958330712072e+00 4.943834182894e+00 4.090092160945e-03 2.634588858152e+00 -2.628298399955e+00 4.090092160945e-03 -4.958330712072e+00 4.943834182894e+00
 indexes of quantum protons are
        0
 indexes of classical nuclei are
         1
         2
         3
         4
         5
         6
         7
         8
         9
        10
        11
        12
 0-th atom's atomic number is 1
 1-th atom's atomic number is 19
 2-th atom's atomic number is 19
 3-th atom's atomic number is 19
 4-th atom's atomic number is 19
 5-th atom's atomic number is 19
 6-th atom's atomic number is 19
 7-th atom's atomic number is 19
 8-th atom's atomic number is 19
 9-th atom's atomic number is 19
 10-th atom's atomic number is 19
 11-th atom's atomic number is 19
 12-th atom's atomic number is 19
 0-th atom's mass is 1.836152673890e+03
 1-th atom's mass is 7.102649828913e+04
 2-th atom's mass is 7.102649828913e+04
 3-th atom's mass is 7.102649828913e+04
 4-th atom's mass is 7.102649828913e+04
 5-th atom's mass is 7.102649828913e+04
 6-th atom's mass is 7.102649828913e+04
 7-th atom's mass is 7.102649828913e+04
 8-th atom's mass is 7.102649828913e+04
 9-th atom's mass is 7.102649828913e+04
 10-th atom's mass is 7.102649828913e+04
 11-th atom's mass is 7.102649828913e+04
 12-th atom's mass is 7.102649828913e+04
 The mass matrix of all nuclei is
   1.8362e+03   7.1026e+04   7.1026e+04   7.1026e+04   7.1026e+04   7.1026e+04   7.1026e+04   7.1026e+04   7.1026e+04   7.1026e+04   7.1026e+04   7.1026e+04   7.1026e+04
   1.8362e+03   7.1026e+04   7.1026e+04   7.1026e+04   7.1026e+04   7.1026e+04   7.1026e+04   7.1026e+04   7.1026e+04   7.1026e+04   7.1026e+04   7.1026e+04   7.1026e+04
   1.8362e+03   7.1026e+04   7.1026e+04   7.1026e+04   7.1026e+04   7.1026e+04   7.1026e+04   7.1026e+04   7.1026e+04   7.1026e+04   7.1026e+04   7.1026e+04   7.1026e+04
 The shift between the basis function center and proton expectation value is   -3.4343e-10  -2.6578e-15  -1.9187e-04

# Running Restricted Simulation #
In Restricted RT simulation, Rebuild Fock matrix
!## Warning: ECP core pseudopotential is only compatible with fixed nuclei ##!
 In NEO-Eh dt = 1.000000000000e-01
 +++--- Updating basis function center takes 5.762971200000e-02 seconds. ---+++
## OUTPUT TO NGRID = 80 WITH BOUNDARY -1.000000000000e+01 TO 1.000000000000e+01

 ### --- Starting time step No.1 --- ###
 --- Within this time step, building Kohn-Sham matrices No.1 ---
!## Warning: ECP core pseudopotential is only compatible with fixed nuclei ##!
 +++--- Building Fock matrices takes 2.713581737000e+00 seconds. ---+++
 --- Within this time step, building Kohn-Sham matrices No.2 for better convergence ---
!## Warning: ECP core pseudopotential is only compatible with fixed nuclei ##!
 --- Within this time step, building Kohn-Sham matrices No.3 for better convergence ---
!## Warning: ECP core pseudopotential is only compatible with fixed nuclei ##!
 Time step 1 mu_e is 1.083118862377e-07 -8.794310810239e-15 7.326522618810e-03
 Time step 1 mu_n is 3.434352909455e-10 2.638347177845e-15 4.281964834342e-03
 Time step 1 mu_classical is 5.400124791777e-13 6.623273078748e-31 -9.836930513529e-04
 Time step 1 mu_tot is 1.086558615411e-07 -6.155963632394e-15 1.062479440180e-02
 Time step 1 e_tot(electrons+protons) is -1.626251607574e+03
 Time step 1 e_kin(classical) is 0.000000000000e+00
 Time step 1 e_conserved is -1.626251607574e+03
 Time step 1 e_kin(quantum) is 0.000000000000e+00
 Time step 1 e_kin(qmclcross) is 0.000000000000e+00
 Time step 1 e_kin(qmqm) is 0.000000000000e+00
 Time step 1 e_kin(qmqm2) is 0.000000000000e+00
 Time step 1 e_tau is 0.000000000000e+00
 Examining the quality of density matrices by calculating Abs(P - P^dagger)
 Max diff: Displayed in the order of Pe.real,  Pe.imag,  Pn.real,  Pn.imag (less is better)
 Max diff: 6.390774100890e-09 2.396534785164e-08 2.353672812205e-14 3.811056796990e-14
 +++--- Updating quantum densities for one step takes 8.414982163000e+00 seconds. ---+++
 ### Reaching maximal steps, quitting... ###
 Total job time:  469.87s(wall), 13425.35s(cpu) 
 Fri Aug  4 08:41:46 2023

        *************************************************************
        *                                                           *
        *  Thank you very much for using Q-Chem.  Have a nice day.  *
        *                                                           *
        *************************************************************


