                  Welcome to Q-Chem
     A Quantum Leap Into The Future Of Chemistry


 Q-Chem 5.3 (devel), Q-Chem, Inc., Pleasanton, CA (2020)

 Yihan Shao,  Zhengting Gan,  E. Epifanovsky,  A. T. B. Gilbert,  M. Wormit,  
 J. Kussmann,  A. W. Lange,  A. Behn,  Jia Deng,  Xintian Feng,  D. Ghosh,  
 M. Goldey,  P. R. Horn,  L. D. Jacobson,  I. Kaliman,  T. Kus,  A. Landau,  
 Jie Liu,  E. I. Proynov,  R. M. Richard,  R. P. Steele,  E. J. Sundstrom,  
 H. L. Woodcock III,  P. M. Zimmerman,  D. Zuev,  B. Alam,  B. Albrecht,  
 A. Aldossary,  E. Alguire,  S. A. Baeppler,  D. Barton,  Z. Benda,  
 Y. A. Bernard,  E. J. Berquist,  K. B. Bravaya,  H. Burton,  K. Carter-Fenk,  
 D. Casanova,  Chun-Min Chang,  Yunqing Chen,  A. Chien,  K. D. Closser,  
 M. P. Coons,  S. Coriani,  S. Dasgupta,  A. L. Dempwolff,  M. Diedenhofen,  
 Hainam Do,  R. G. Edgar,  Po-Tung Fang,  S. Faraji,  S. Fatehi,  
 Qingguo Feng,  J. Fosso-Tande,  J. Gayvert,  Qinghui Ge,  A. Ghysels,  
 G. Gidofalvi,  J. Gomes,  J. Gonthier,  S. Gulania,  A. Gunina,  D. Hait,  
 M. W. D. Hanson-Heine,  S. Hammes-Schiffer,  P. H. P. Harbach,  
 A. W. Hauser,  M. F. Herbst,  J. E. Herr,  E. G. Hohenstein,  Z. C. Holden,  
 S. Houck,  Kerwin Hui,  B. C. Huynh,  M. Ivanov,  T.-C. Jagau,  Hyunjun Ji,  
 B. Kaduk,  K. Khistyaev,  Jaehoon Kim,  P. Klunzinger,  K. Koh,  
 D. Kosenkov,  L. Koulias,  T. Kowalczyk,  C. M. Krauter,  A. Kunitsa,  
 Ka Un Lao,  A. Laurent,  K. V. Lawler,  Joonho Lee,  D. Lefrancois,  
 S. Lehtola,  D. S. Levine,  Yi-Pei Li,  You-Sheng Lin,  Fenglai Liu,  
 Kuan-Yu Liu,  E. Livshits,  M. Loipersberger,  A. Luenser,  A. Manjanath,  
 P. Manohar,  E. Mansoor,  S. F. Manzer,  Shan-Ping Mao,  Yuezhi Mao,  
 N. Mardirossian,  A. V. Marenich,  T. Markovich,  L. A. Martinez-Martinez,  
 S. A. Maurer,  N. J. Mayhall,  S. C. McKenzie,  J.-M. Mewes,  P. Morgante,  
 A. F. Morrison,  J. W. Mullinax,  K. Nanda,  T. S. Nguyen-Beck,  
 R. Olivares-Amaya,  K. J. Oosterbaan,  J. A. Parkhill,  S. K. Paul,  
 F. Pavosevic,  Zheng Pei,  T. M. Perrine,  F. Plasser,  P. Pokhilko,  
 S. Prager,  A. Prociuk,  E. Ramos,  B. Rana,  D. R. Rehn,  F. Rob,  
 E. Rossomme,  M. Scheurer,  M. Schneider,  N. Sergueev,  S. M. Sharada,  
 S. Sharma,  W. Skomorowski,  D. W. Small,  T. Stauch,  C. J. Stein,  
 T. Stein,  Yu-Chuan Su,  S. P. Veccham,  Zhen Tao,  A. J. W. Thom,  
 A. Tkatchenko,  T. Tsuchimochi,  N. M. Tubman,  L. Vogt,  M. L. Vidal,  
 O. Vydrov,  M. A. Watson,  J. Wenzel,  M. de Wergifosse,  T. A. Wesolowski,  
 A. White,  J. Witte,  A. Yamada,  Jun Yang,  K. Yao,  S. Yeganeh,  
 S. R. Yost,  Zhi-Qiang You,  A. Zech,  Igor Ying Zhang,  Xing Zhang,  
 Yan Zhao,  Ying Zhu,  B. R. Brooks,  G. K. L. Chan,  C. J. Cramer,  
 M. S. Gordon,  W. J. Hehre,  A. Klamt,  M. W. Schmidt,  C. D. Sherrill,  
 D. G. Truhlar,  A. Aspuru-Guzik,  R. Baer,  A. T. Bell,  N. A. Besley,  
 Jeng-Da Chai,  A. E. DePrince, III,  R. A. DiStasio Jr.,  A. Dreuw,  
 B. D. Dunietz,  T. R. Furlani,  Chao-Ping Hsu,  Yousung Jung,  Jing Kong,  
 D. S. Lambrecht,  WanZhen Liang,  C. Ochsenfeld,  V. A. Rassolov,  
 L. V. Slipchenko,  J. E. Subotnik,  T. Van Voorhis,  J. M. Herbert,  
 A. I. Krylov,  P. M. W. Gill,  M. Head-Gordon

 Contributors to earlier versions of Q-Chem not listed above: 
 R. D. Adamson,  B. Austin,  J. Baker,  G. J. O. Beran,  K. Brandhorst,  
 S. T. Brown,  E. F. C. Byrd,  A. K. Chakraborty,  C.-L. Cheng,  
 Siu Hung Chien,  D. M. Chipman,  D. L. Crittenden,  H. Dachsel,  
 R. J. Doerksen,  A. D. Dutoi,  L. Fusti-Molnar,  W. A. Goddard III,  
 A. Golubeva-Zadorozhnaya,  S. R. Gwaltney,  G. Hawkins,  A. Heyden,  
 S. Hirata,  G. Kedziora,  F. J. Keil,  C. Kelley,  Jihan Kim,  R. A. King,  
 R. Z. Khaliullin,  P. P. Korambath,  W. Kurlancheek,  A. M. Lee,  M. S. Lee,  
 S. V. Levchenko,  Ching Yeh Lin,  D. Liotard,  R. C. Lochan,  I. Lotan,  
 P. E. Maslen,  N. Nair,  D. P. O'Neill,  D. Neuhauser,  E. Neuscamman,  
 C. M. Oana,  R. Olson,  B. Peters,  R. Peverati,  P. A. Pieniazek,  
 Y. M. Rhee,  J. Ritchie,  M. A. Rohrdanz,  E. Rosta,  N. J. Russ,  
 H. F. Schaefer III,  N. E. Schultz,  N. Shenvi,  A. C. Simmonett,  A. Sodt,  
 D. Stuck,  K. S. Thanthiriwatte,  V. Vanovschi,  Tao Wang,  A. Warshel,  
 C. F. Williams,  Q. Wu,  X. Xu,  W. Zhang

 Please cite Q-Chem as follows:
 Y. Shao et al., Mol. Phys. 113, 184-215 (2015)
 DOI: 10.1080/00268976.2014.952696

 Q-Chem 5.3.2 for Intel X86 EM64T Linux

 Parts of Q-Chem use Armadillo 9.800.1 (Horizon Scraper).
 http://arma.sourceforge.net/

 Q-Chem begins on Wed Oct 20 10:27:13 2021  

Host: c38n02.grace.hpc.yale.internal
0

     Scratch files written to /home/fas/hammes_schiffer/zt85/scratch/HCN_neotddft_b3lyp_epc172_dz_8spdS_novpp_10//
Processing $rem in /home/fas/hammes_schiffer/zt85/project/software/qchem_dev/neo_jk_opt/config/preferences:
Processing $rem in /home/zt85/.qchemrc:

Checking the input file for inconsistencies... 	...done.

--------------------------------------------------------------
User input:
--------------------------------------------------------------
$molecule
0 1
C 0.0 0.0 0.0
N 1.15824 0.0 0.0
H -1.0702  0.0 0.0 
$end

$rem
input_bohr = false
method = b3lyp
xc_grid = 000099000302
neo = true
neo_epc = epc172
basis = cc-pvdz
RPA = true
SET_ROOTS = 150
SCF_ALGORITHM = GDM 
thresh = 14
s2thresh = 12
SCF_CONVERGENCE = 11
NEO_N_SCF_CONVERGENCE = 11
MAX_SCF_CYCLES = 400
NEO_VPP = 0
MEM_TOTAL = 7000
NEO_BASIS_LIN_DEP_THRESH = 8
SET_SUBSPACE = 65
NEO_PURECART = 1111
NEO_E_CONV = 10
$end

$neo_basis
H    3
S    1    1.000000
   2.828400 1.0
S    1    1.000000
   4.0 1.0
S    1    1.000000
   5.6569 1.0
S    1    1.000000
   8.0 1.0
S    1    1.000000
   11.3137 1.0
S    1    1.000000
   16.0 1.0
S    1    1.000000
   22.6274 1.0
S    1    1.000000
   32.0 1.0
P    1    1.000000
   2.828400 1.0
P    1    1.000000
   4.0 1.0
P    1    1.000000
   5.6569 1.0
P    1    1.000000
   8.0 1.0
P    1    1.000000
   11.3137 1.0
P    1    1.000000
   16.0 1.0
P    1    1.000000
   22.6274 1.0
P    1    1.000000
   32.0 1.0
D    1    1.000000
   2.828400 1.0
D    1    1.000000
   4.0 1.0
D    1    1.000000
   5.6569 1.0
D    1    1.000000
   8.0 1.0
D    1    1.000000
   11.3137 1.0
D    1    1.000000
   16.0 1.0
D    1    1.000000
   22.6274 1.0
D    1    1.000000
   32.0 1.0
****
$end

--------------------------------------------------------------
  in makenn
 E:    23.818030364629941     
 ----------------------------------------------------------------
             Standard Nuclear Orientation (Angstroms)
    I     Atom           X                Y                Z
 ----------------------------------------------------------------
    1      C       0.0000000000     0.0000000000    -0.5026771429
    2      N       0.0000000000     0.0000000000     0.6555628571
    3      H       0.0000000000     0.0000000000    -1.5728771429
 ----------------------------------------------------------------
 Molecular Point Group                 C*v   NOp =***
 Largest Abelian Subgroup              C2v   NOp =  1
 Nuclear Repulsion Energy =          23.81803036 hartrees
 There are        7 alpha and        7 beta electrons
 Requested basis set is cc-pVDZ
 There are 15 shells and 33 basis functions

 Total QAlloc Memory Limit   7000 MB
 Mega-Array Size       188 MB
 MEM_STATIC part       192 MB

                       Distance Matrix (Angstroms)
             C (  1)   N (  2)
   N (  2)  1.158240
   H (  3)  1.070200  2.228440

 A cutoff of  1.0D-12 yielded    120 shell pairs
 There are       596 function pairs (       675 Cartesian)
 Smallest overlap matrix eigenvalue = 7.73E-03

 Scale SEOQF with 1.000000e+00/1.000000e+00/1.000000e-01

 Standard Electronic Orientation quadrupole field applied
 Nucleus-field energy     =    -0.0000000007 hartrees
 Guess from superposition of atomic densities
 Warning:  Energy on first SCF cycle will be non-variational
 SAD guess density has 14.000000 electrons

 -----------------------------------------------------------------------
  General SCF calculation program by
  Eric Jon Sundstrom, Paul Horn, Yuezhi Mao, Dmitri Zuev, Alec White,
  David Stuck, Shaama M.S., Shane Yost, Joonho Lee, David Small,
  Daniel Levine, Susi Lehtola, Hugh Burton, Evgeny Epifanovsky,
  Bang C. Huynh
 -----------------------------------------------------------------------
 Exchange:     0.2000 Hartree-Fock + 0.0800 Slater + 0.7200 B88
 Correlation:  0.1900 VWN1RPA + 0.8100 LYP
 Using Euler-Maclaurin-Lebedev (99,302) quadrature formula
 using 6 threads for integral computing
 -------------------------------------------------------
 OpenMP Integral computing Module                
 Release: version 1.0, May 2013, Q-Chem Inc. Pittsburgh 
 -------------------------------------------------------
 A restricted SCF calculation will be
 performed using Roothaan-Hall, GDM
 SCF converges when RMS gradient is below 1.0e-11
 ---------------------------------------
  Cycle       Energy         DIIS error
 ---------------------------------------
    1     -93.5814968120      1.26e-01  Roothaan Step
 ---------------------------------------
  Cycle       Energy        RMS Gradient
 ---------------------------------------
    1     -93.3872291074      2.03e-01   Descent step
    2     -93.2514491538      4.92e-01  Line search: overstep
    3     -93.4228596875      4.40e-02   Normal BFGS step
    4     -93.4262188607      3.82e-02   Normal BFGS step
    5     -93.4301260299      3.96e-03   Normal BFGS step
    6     -93.4301414964      6.64e-04   Normal BFGS step
    7     -93.4301420807      2.38e-05   Normal BFGS step
    8     -93.4301420832      5.22e-06   Normal BFGS step
    9     -93.4301420833      2.40e-07   Normal BFGS step
   10     -93.4301420833      2.05e-07   Normal BFGS step
   11     -93.4301420833      4.90e-08   Normal BFGS step
   12     -93.4301420833      2.14e-08   Normal BFGS step
   13     -93.4301420833      4.29e-09   Normal BFGS step
   14     -93.4301420833      3.38e-09   Normal BFGS step
   15     -93.4301420833      4.14e-10   Normal BFGS step
   16     -93.4301420833      1.20e-10   Normal BFGS step
   17     -93.4301420833      3.43e-12  Convergence criterion met
 ---------------------------------------
 SCF time:   CPU 40.10s  wall 11.00s 
 SCF   energy in the final basis set =      -93.4301420833
 Total energy in the final basis set =      -93.4301420833

 ---------------------------------------
 Restricted NEO-SCF calculation
 ---------------------------------------
dev.nthreads6
 VPP is set to false! Use this only in the case of one quantum hydrogen
list of transition states
[matrix size: 0x1]
npts
   3.2764e+04
   5.0000e+00
   6.0000e+00
box
  1.8236e-315  1.8236e-315
  1.8236e-315  1.8236e-315
  1.8236e-315  1.8236e-315
 This NEO calculation is using proton isotope
 Electronic basis set linear dependency threshold: 10E-6.0000000000
 Nuclear basis set linear dependency threshold: 10E-8.0000000000
 2 particle integral threshold: 10E-12
 Requested basis set is non-standard
 There are 24 shells and 72 basis functions
 NEO centers: 3 
There are 1 number of quantum nuclei
 Number of electronic ao: 33  Number of electronic mo33
 Number of nuclear ao: 72  Number of nuclear mo72
 Exchange:     0.2000 Hartree-Fock + 0.0800 Slater + 0.7200 B88
 Correlation:  0.1900 VWN1RPA + 0.8100 LYP
 Using Euler-Maclaurin-Lebedev (99,302) quadrature formula
 Grid_batch_sz128
 Dft_grid_thresh 14
 Grid/integral threshold: 10E-14
 Read electronic density from eSCF
 NEO-SCF calculation will be performed using Roothaan-Hall, GDM
 NEO-SCF Cycles 1
 Nuclear Block
 ---------------------------------------
  Cycle       Energy        RMS Gradient
 ---------------------------------------
    1      18.2444159296      5.96e-02   Normal BFGS step
    2      18.2386528767      2.64e-02   Normal BFGS step
    3      18.2367369368      1.57e-02   Normal BFGS step
    4      18.2364475283      3.42e-03   Normal BFGS step
    5      18.2364319106      1.00e-03   Normal BFGS step
    6      18.2364308967      3.14e-04   Normal BFGS step
    7      18.2364307369      4.37e-05   Normal BFGS step
    8      18.2364307346      1.61e-05   Normal BFGS step
    9      18.2364307342      1.36e-06   Normal BFGS step
   10      18.2364307342      4.02e-07   Normal BFGS step
   11      18.2364307342      5.61e-08   Normal BFGS step
   12      18.2364307342      1.42e-08   Normal BFGS step
   13      18.2364307342      2.47e-09   Normal BFGS step
  GDM::WARNING energy changes are now smaller than effective accuracy.
  GDM::        calculation will continue, but THRESH should be increased
  GDM::        or SCF_CONVERGENCE decreased. 
  GDM::        effective_thresh = 2.47e-09
   14      18.2364307342      1.47e-09   Normal BFGS step
  GDM::WARNING energy changes are now smaller than effective accuracy.
  GDM::        calculation will continue, but THRESH should be increased
  GDM::        or SCF_CONVERGENCE decreased. 
  GDM::        effective_thresh = 2.47e-09
   15      18.2364307342      1.54e-10   Normal BFGS step
  GDM::WARNING energy changes are now smaller than effective accuracy.
  GDM::        calculation will continue, but THRESH should be increased
  GDM::        or SCF_CONVERGENCE decreased. 
  GDM::        effective_thresh = 2.47e-09
   16      18.2364307342      4.64e-11   Normal BFGS step
  GDM::WARNING energy changes are now smaller than effective accuracy.
  GDM::        calculation will continue, but THRESH should be increased
  GDM::        or SCF_CONVERGENCE decreased. 
  GDM::        effective_thresh = 2.47e-09
   17      18.2364307342      2.08e-11   Normal BFGS step
   18      18.2364307342      1.47e-11   Normal BFGS step
  GDM::WARNING energy changes are now smaller than effective accuracy.
  GDM::        calculation will continue, but THRESH should be increased
  GDM::        or SCF_CONVERGENCE decreased. 
  GDM::        effective_thresh = 2.47e-09
   19      18.2364307342      3.99e-12   Normal BFGS step
   20      18.2364307342      3.99e-12  Convergence criterion met
 Electronic Block
 ---------------------------------------
  Cycle       Energy        RMS Gradient
 ---------------------------------------
    1     -93.4187932255      8.81e-03   Normal BFGS step
    2     -93.4185390051      2.18e-02  Line search: overstep
    3     -93.4188752955      3.16e-03   Normal BFGS step
    4     -93.4188914939      1.46e-03   Normal BFGS step
    5     -93.4188997976      2.66e-04   Normal BFGS step
    6     -93.4188999412      9.89e-05   Normal BFGS step
    7     -93.4188999991      2.71e-06   Normal BFGS step
    8     -93.4188999991      3.83e-07   Normal BFGS step
    9     -93.4188999991      3.31e-08   Normal BFGS step
   10     -93.4188999991      4.71e-08   Normal BFGS step
   11     -93.4188999991      1.54e-08   Normal BFGS step
   12     -93.4188999991      1.22e-09   Normal BFGS step
   13     -93.4188999991      2.17e-10   Normal BFGS step
   14     -93.4188999991      2.98e-11   Normal BFGS step
   15     -93.4188999991      1.94e-11   Normal BFGS step
   16     -93.4188999991      7.71e-13   Normal BFGS step
   17     -93.4188999991      7.71e-13  Convergence criterion met
 NEO-SCF Cycles 2
 Nuclear Block
 ---------------------------------------
  Cycle       Energy        RMS Gradient
 ---------------------------------------
    1     -93.4183822319      2.96e-02   Normal BFGS step
    2     -93.4189611197      1.38e-02   Normal BFGS step
    3     -93.4190915408      1.63e-03   Normal BFGS step
    4     -93.4190983328      5.91e-04   Normal BFGS step
    5     -93.4190988721      1.33e-04   Normal BFGS step
    6     -93.4190988890      3.56e-05   Normal BFGS step
    7     -93.4190988906      4.39e-06   Normal BFGS step
    8     -93.4190988906      5.67e-07   Normal BFGS step
    9     -93.4190988906      1.58e-07   Normal BFGS step
   10     -93.4190988907      2.68e-08   Normal BFGS step
   11     -93.4190988906      3.12e-09   Normal BFGS step
  GDM::WARNING energy changes are now smaller than effective accuracy.
  GDM::        calculation will continue, but THRESH should be increased
  GDM::        or SCF_CONVERGENCE decreased. 
  GDM::        effective_thresh = 7.10e-09
   12     -93.4190988906      4.72e-10   Normal BFGS step
   13     -93.4190988907      2.94e-10   Normal BFGS step
  GDM::WARNING energy changes are now smaller than effective accuracy.
  GDM::        calculation will continue, but THRESH should be increased
  GDM::        or SCF_CONVERGENCE decreased. 
  GDM::        effective_thresh = 7.10e-09
   14     -93.4190988906      1.63e-11   Normal BFGS step
   15     -93.4190988907      5.88e-12   Normal BFGS step
   16     -93.4190988906      5.88e-12  Convergence criterion met
 Electronic Block
 ---------------------------------------
  Cycle       Energy        RMS Gradient
 ---------------------------------------
    1     -93.4191380167      3.89e-03   Normal BFGS step
    2     -93.4190711105      1.02e-02  Line search: overstep
    3     -93.4191498968      1.04e-03   Normal BFGS step
    4     -93.4191515057      2.72e-04   Normal BFGS step
    5     -93.4191517813      1.14e-04   Normal BFGS step
    6     -93.4191518040      1.78e-05   Normal BFGS step
    7     -93.4191518050      1.94e-06   Normal BFGS step
    8     -93.4191518050      3.88e-07   Normal BFGS step
    9     -93.4191518050      1.95e-08   Normal BFGS step
   10     -93.4191518050      3.80e-09   Normal BFGS step
   11     -93.4191518050      2.00e-09   Normal BFGS step
   12     -93.4191518050      3.22e-10   Normal BFGS step
   13     -93.4191518050      2.96e-11   Normal BFGS step
   14     -93.4191518050      2.39e-12   Normal BFGS step
   15     -93.4191518050      2.39e-12  Convergence criterion met
 NEO-SCF Cycles 3
 Nuclear Block
 ---------------------------------------
  Cycle       Energy        RMS Gradient
 ---------------------------------------
    1     -93.4189958955      1.85e-02   Normal BFGS step
    2     -93.4191315299      8.26e-03   Normal BFGS step
    3     -93.4191730353      9.22e-04   Normal BFGS step
    4     -93.4191741162      3.52e-04   Normal BFGS step
    5     -93.4191742408      5.21e-05   Normal BFGS step
    6     -93.4191742433      1.02e-05   Normal BFGS step
    7     -93.4191742436      3.56e-06   Normal BFGS step
    8     -93.4191742436      6.57e-07   Normal BFGS step
    9     -93.4191742436      1.52e-07   Normal BFGS step
   10     -93.4191742436      9.31e-09   Normal BFGS step
   11     -93.4191742436      1.60e-09   Normal BFGS step
   12     -93.4191742436      2.02e-10   Normal BFGS step
  GDM::WARNING energy changes are now smaller than effective accuracy.
  GDM::        calculation will continue, but THRESH should be increased
  GDM::        or SCF_CONVERGENCE decreased. 
  GDM::        effective_thresh = 3.38e-09
   13     -93.4191742436      8.74e-11   Normal BFGS step
  GDM::WARNING energy changes are now smaller than effective accuracy.
  GDM::        calculation will continue, but THRESH should be increased
  GDM::        or SCF_CONVERGENCE decreased. 
  GDM::        effective_thresh = 4.37e-09
   14     -93.4191742436      1.59e-11   Normal BFGS step
   15     -93.4191742436      1.14e-11   Normal BFGS step
  GDM::WARNING energy changes are now smaller than effective accuracy.
  GDM::        calculation will continue, but THRESH should be increased
  GDM::        or SCF_CONVERGENCE decreased. 
  GDM::        effective_thresh = 4.37e-09
   16     -93.4191742436      1.33e-11   Normal BFGS step
  GDM::WARNING energy changes are now smaller than effective accuracy.
  GDM::        calculation will continue, but THRESH should be increased
  GDM::        or SCF_CONVERGENCE decreased. 
  GDM::        effective_thresh = 4.37e-09
   17     -93.4191742436      8.37e-12   Normal BFGS step
   18     -93.4191742436      8.37e-12  Convergence criterion met
 Electronic Block
 ---------------------------------------
  Cycle       Energy        RMS Gradient
 ---------------------------------------
    1     -93.4191815210      1.76e-03   Normal BFGS step
    2     -93.4191663491      4.68e-03  Line search: overstep
    3     -93.4191843605      4.09e-04   Normal BFGS step
    4     -93.4191847084      1.74e-04   Normal BFGS step
    5     -93.4191848213      5.34e-05   Normal BFGS step
    6     -93.4191848257      6.14e-06   Normal BFGS step
    7     -93.4191848259      6.45e-07   Normal BFGS step
    8     -93.4191848259      1.40e-07   Normal BFGS step
    9     -93.4191848259      6.33e-09   Normal BFGS step
   10     -93.4191848259      1.62e-09   Normal BFGS step
   11     -93.4191848259      6.30e-10   Normal BFGS step
   12     -93.4191848259      8.16e-11   Normal BFGS step
  GDM::WARNING energy changes are now smaller than effective accuracy.
  GDM::        calculation will continue, but THRESH should be increased
  GDM::        or SCF_CONVERGENCE decreased. 
  GDM::        effective_thresh = 2.89e-09
   13     -93.4191848259      1.31e-11   Normal BFGS step
   14     -93.4191848259      7.64e-12   Normal BFGS step
   15     -93.4191848259      7.64e-12  Convergence criterion met
 NEO-SCF Cycles 4
 Nuclear Block
 ---------------------------------------
  Cycle       Energy        RMS Gradient
 ---------------------------------------
    1     -93.4191448317      9.49e-03   Normal BFGS step
    2     -93.4191785818      4.13e-03   Normal BFGS step
    3     -93.4191896532      4.67e-04   Normal BFGS step
    4     -93.4191899072      1.68e-04   Normal BFGS step
    5     -93.4191899373      2.33e-05   Normal BFGS step
    6     -93.4191899378      4.68e-06   Normal BFGS step
    7     -93.4191899379      1.59e-06   Normal BFGS step
    8     -93.4191899379      2.71e-07   Normal BFGS step
    9     -93.4191899379      6.84e-08   Normal BFGS step
   10     -93.4191899379      4.01e-09   Normal BFGS step
  GDM::WARNING energy changes are now smaller than effective accuracy.
  GDM::        calculation will continue, but THRESH should be increased
  GDM::        or SCF_CONVERGENCE decreased. 
  GDM::        effective_thresh = 1.62e-09
   11     -93.4191899379      7.72e-10   Normal BFGS step
  GDM::WARNING energy changes are now smaller than effective accuracy.
  GDM::        calculation will continue, but THRESH should be increased
  GDM::        or SCF_CONVERGENCE decreased. 
  GDM::        effective_thresh = 1.62e-09
   12     -93.4191899379      1.06e-10   Normal BFGS step
   13     -93.4191899379      3.60e-11   Normal BFGS step
   14     -93.4191899379      6.40e-12   Normal BFGS step
   15     -93.4191899379      6.40e-12  Convergence criterion met
 Electronic Block
 ---------------------------------------
  Cycle       Energy        RMS Gradient
 ---------------------------------------
    1     -93.4191916384      8.80e-04   Normal BFGS step
    2     -93.4191880893      2.34e-03  Line search: overstep
    3     -93.4191923103      1.85e-04   Normal BFGS step
    4     -93.4191923915      8.82e-05   Normal BFGS step
    5     -93.4191924203      2.63e-05   Normal BFGS step
    6     -93.4191924213      3.18e-06   Normal BFGS step
    7     -93.4191924214      2.99e-07   Normal BFGS step
    8     -93.4191924214      8.17e-08   Normal BFGS step
    9     -93.4191924214      3.10e-09   Normal BFGS step
   10     -93.4191924214      7.06e-10   Normal BFGS step
   11     -93.4191924214      2.83e-10   Normal BFGS step
   12     -93.4191924214      4.75e-11   Normal BFGS step
   13     -93.4191924214      7.70e-12   Normal BFGS step
   14     -93.4191924214      7.70e-12  Convergence criterion met
 NEO-SCF Cycles 5
 Nuclear Block
 ---------------------------------------
  Cycle       Energy        RMS Gradient
 ---------------------------------------
    1     -93.4191826820      4.63e-03   Normal BFGS step
    2     -93.4191908214      2.02e-03   Normal BFGS step
    3     -93.4191935641      2.29e-04   Normal BFGS step
    4     -93.4191936245      7.97e-05   Normal BFGS step
    5     -93.4191936315      1.17e-05   Normal BFGS step
    6     -93.4191936317      2.38e-06   Normal BFGS step
    7     -93.4191936317      7.38e-07   Normal BFGS step
    8     -93.4191936317      1.29e-07   Normal BFGS step
    9     -93.4191936317      3.24e-08   Normal BFGS step
  GDM::WARNING energy changes are now smaller than effective accuracy.
  GDM::        calculation will continue, but THRESH should be increased
  GDM::        or SCF_CONVERGENCE decreased. 
  GDM::        effective_thresh = 2.48e-09
   10     -93.4191936317      1.76e-09   Normal BFGS step
  GDM::WARNING energy changes are now smaller than effective accuracy.
  GDM::        calculation will continue, but THRESH should be increased
  GDM::        or SCF_CONVERGENCE decreased. 
  GDM::        effective_thresh = 2.48e-09
   11     -93.4191936317      3.72e-10   Normal BFGS step
   12     -93.4191936317      5.32e-11   Normal BFGS step
  GDM::WARNING energy changes are now smaller than effective accuracy.
  GDM::        calculation will continue, but THRESH should be increased
  GDM::        or SCF_CONVERGENCE decreased. 
  GDM::        effective_thresh = 2.48e-09
   13     -93.4191936317      1.72e-11   Normal BFGS step
   14     -93.4191936317      1.24e-11   Normal BFGS step
   15     -93.4191936317      9.75e-12   Normal BFGS step
   16     -93.4191936317      9.75e-12  Convergence criterion met
 Electronic Block
 ---------------------------------------
  Cycle       Energy        RMS Gradient
 ---------------------------------------
    1     -93.4191940364      3.59e-04   Normal BFGS step
    2     -93.4191931941      9.55e-04  Line search: overstep
    3     -93.4191941961      9.04e-05   Normal BFGS step
    4     -93.4191942154      4.32e-05   Normal BFGS step
    5     -93.4191942223      1.26e-05   Normal BFGS step
    6     -93.4191942225      1.50e-06   Normal BFGS step
    7     -93.4191942225      1.45e-07   Normal BFGS step
    8     -93.4191942225      4.18e-08   Normal BFGS step
    9     -93.4191942225      1.51e-09   Normal BFGS step
   10     -93.4191942225      3.40e-10   Normal BFGS step
   11     -93.4191942225      1.36e-10   Normal BFGS step
   12     -93.4191942225      2.37e-11   Normal BFGS step
  GDM::WARNING energy changes are now smaller than effective accuracy.
  GDM::        calculation will continue, but THRESH should be increased
  GDM::        or SCF_CONVERGENCE decreased. 
  GDM::        effective_thresh = 1.03e-09
   13     -93.4191942225      3.80e-12   Normal BFGS step
   14     -93.4191942225      3.80e-12  Convergence criterion met
 NEO-SCF Cycles 6
 Nuclear Block
 ---------------------------------------
  Cycle       Energy        RMS Gradient
 ---------------------------------------
    1     -93.4191918752      2.25e-03   Normal BFGS step
    2     -93.4191938292      9.85e-04   Normal BFGS step
    3     -93.4191944952      1.12e-04   Normal BFGS step
    4     -93.4191945097      3.83e-05   Normal BFGS step
    5     -93.4191945113      5.89e-06   Normal BFGS step
    6     -93.4191945114      1.24e-06   Normal BFGS step
    7     -93.4191945114      3.50e-07   Normal BFGS step
    8     -93.4191945114      6.32e-08   Normal BFGS step
    9     -93.4191945114      1.56e-08   Normal BFGS step
   10     -93.4191945114      8.01e-10   Normal BFGS step
   11     -93.4191945114      1.82e-10   Normal BFGS step
  GDM::WARNING energy changes are now smaller than effective accuracy.
  GDM::        calculation will continue, but THRESH should be increased
  GDM::        or SCF_CONVERGENCE decreased. 
  GDM::        effective_thresh = 1.99e-10
   12     -93.4191945114      2.63e-11   Normal BFGS step
   13     -93.4191945114      8.79e-12   Normal BFGS step
   14     -93.4191945114      8.79e-12  Convergence criterion met
 Electronic Block
 ---------------------------------------
  Cycle       Energy        RMS Gradient
 ---------------------------------------
    1     -93.4191946082      2.09e-04   Normal BFGS step
    2     -93.4191944070      5.57e-04  Line search: overstep
    3     -93.4191946464      4.62e-05   Normal BFGS step
    4     -93.4191946510      2.11e-05   Normal BFGS step
    5     -93.4191946526      5.45e-06   Normal BFGS step
    6     -93.4191946527      6.50e-07   Normal BFGS step
    7     -93.4191946527      7.11e-08   Normal BFGS step
    8     -93.4191946527      1.75e-08   Normal BFGS step
    9     -93.4191946527      7.40e-10   Normal BFGS step
   10     -93.4191946527      1.67e-10   Normal BFGS step
  GDM::WARNING energy changes are now smaller than effective accuracy.
  GDM::        calculation will continue, but THRESH should be increased
  GDM::        or SCF_CONVERGENCE decreased. 
  GDM::        effective_thresh = 2.13e-09
   11     -93.4191946527      6.65e-11   Normal BFGS step
   12     -93.4191946527      1.16e-11   Normal BFGS step
  GDM::WARNING energy changes are now smaller than effective accuracy.
  GDM::        calculation will continue, but THRESH should be increased
  GDM::        or SCF_CONVERGENCE decreased. 
  GDM::        effective_thresh = 2.13e-09
   13     -93.4191946527      1.85e-12   Normal BFGS step
   14     -93.4191946527      1.85e-12  Convergence criterion met
 NEO-SCF Cycles 7
 Nuclear Block
 ---------------------------------------
  Cycle       Energy        RMS Gradient
 ---------------------------------------
    1     -93.4191940881      1.10e-03   Normal BFGS step
    2     -93.4191945573      4.82e-04   Normal BFGS step
    3     -93.4191947180      5.48e-05   Normal BFGS step
    4     -93.4191947215      1.86e-05   Normal BFGS step
    5     -93.4191947219      2.93e-06   Normal BFGS step
    6     -93.4191947219      6.24e-07   Normal BFGS step
    7     -93.4191947219      1.69e-07   Normal BFGS step
    8     -93.4191947219      3.10e-08   Normal BFGS step
    9     -93.4191947219      7.58e-09   Normal BFGS step
   10     -93.4191947219      3.71e-10   Normal BFGS step
  GDM::WARNING energy changes are now smaller than effective accuracy.
  GDM::        calculation will continue, but THRESH should be increased
  GDM::        or SCF_CONVERGENCE decreased. 
  GDM::        effective_thresh = 7.31e-10
   11     -93.4191947219      8.85e-11   Normal BFGS step
   12     -93.4191947219      1.35e-11   Normal BFGS step
  GDM::WARNING energy changes are now smaller than effective accuracy.
  GDM::        calculation will continue, but THRESH should be increased
  GDM::        or SCF_CONVERGENCE decreased. 
  GDM::        effective_thresh = 7.31e-10
   13     -93.4191947219      8.43e-12   Normal BFGS step
   14     -93.4191947219      8.43e-12  Convergence criterion met
 Electronic Block
 ---------------------------------------
  Cycle       Energy        RMS Gradient
 ---------------------------------------
    1     -93.4191947451      1.03e-04   Normal BFGS step
    2     -93.4191946969      2.75e-04  Line search: overstep
    3     -93.4191947543      2.49e-05   Normal BFGS step
    4     -93.4191947554      1.03e-05   Normal BFGS step
    5     -93.4191947558      2.60e-06   Normal BFGS step
    6     -93.4191947558      3.94e-07   Normal BFGS step
    7     -93.4191947558      3.48e-08   Normal BFGS step
    8     -93.4191947558      9.87e-09   Normal BFGS step
    9     -93.4191947558      3.63e-10   Normal BFGS step
   10     -93.4191947558      8.17e-11   Normal BFGS step
   11     -93.4191947558      3.26e-11   Normal BFGS step
  GDM::WARNING energy changes are now smaller than effective accuracy.
  GDM::        calculation will continue, but THRESH should be increased
  GDM::        or SCF_CONVERGENCE decreased. 
  GDM::        effective_thresh = 1.74e-09
   12     -93.4191947558      5.66e-12   Normal BFGS step
   13     -93.4191947558      5.66e-12  Convergence criterion met
 NEO-SCF Cycles 8
 Nuclear Block
 ---------------------------------------
  Cycle       Energy        RMS Gradient
 ---------------------------------------
    1     -93.4191946200      5.37e-04   Normal BFGS step
    2     -93.4191947327      2.36e-04   Normal BFGS step
    3     -93.4191947715      2.68e-05   Normal BFGS step
    4     -93.4191947723      9.06e-06   Normal BFGS step
    5     -93.4191947724      1.44e-06   Normal BFGS step
    6     -93.4191947724      3.10e-07   Normal BFGS step
    7     -93.4191947724      8.20e-08   Normal BFGS step
    8     -93.4191947724      1.52e-08   Normal BFGS step
    9     -93.4191947724      3.70e-09   Normal BFGS step
   10     -93.4191947724      1.86e-10   Normal BFGS step
  GDM::WARNING energy changes are now smaller than effective accuracy.
  GDM::        calculation will continue, but THRESH should be increased
  GDM::        or SCF_CONVERGENCE decreased. 
  GDM::        effective_thresh = 5.54e-09
   11     -93.4191947724      4.94e-11   Normal BFGS step
   12     -93.4191947724      2.24e-11   Normal BFGS step
  GDM::WARNING energy changes are now smaller than effective accuracy.
  GDM::        calculation will continue, but THRESH should be increased
  GDM::        or SCF_CONVERGENCE decreased. 
  GDM::        effective_thresh = 5.54e-09
   13     -93.4191947724      8.16e-12   Normal BFGS step
   14     -93.4191947724      8.16e-12  Convergence criterion met
 Electronic Block
 ---------------------------------------
  Cycle       Energy        RMS Gradient
 ---------------------------------------
    1     -93.4191947780      4.93e-05   Normal BFGS step
    2     -93.4191947664      1.31e-04  Line search: overstep
    3     -93.4191947802      1.06e-05   Normal BFGS step
    4     -93.4191947804      5.07e-06   Normal BFGS step
    5     -93.4191947805      1.58e-06   Normal BFGS step
    6     -93.4191947805      1.85e-07   Normal BFGS step
    7     -93.4191947805      1.71e-08   Normal BFGS step
    8     -93.4191947805      4.29e-09   Normal BFGS step
    9     -93.4191947805      1.78e-10   Normal BFGS step
   10     -93.4191947805      4.01e-11   Normal BFGS step
  GDM::WARNING energy changes are now smaller than effective accuracy.
  GDM::        calculation will continue, but THRESH should be increased
  GDM::        or SCF_CONVERGENCE decreased. 
  GDM::        effective_thresh = 4.06e-09
   11     -93.4191947805      1.60e-11   Normal BFGS step
   12     -93.4191947805      2.77e-12   Normal BFGS step
   13     -93.4191947805      2.77e-12  Convergence criterion met
 NEO-SCF Cycles 9
 Nuclear Block
 ---------------------------------------
  Cycle       Energy        RMS Gradient
 ---------------------------------------
    1     -93.4191947479      2.63e-04   Normal BFGS step
    2     -93.4191947750      1.16e-04   Normal BFGS step
    3     -93.4191947843      1.31e-05   Normal BFGS step
    4     -93.4191947845      4.43e-06   Normal BFGS step
    5     -93.4191947845      7.11e-07   Normal BFGS step
    6     -93.4191947845      1.53e-07   Normal BFGS step
    7     -93.4191947845      4.00e-08   Normal BFGS step
    8     -93.4191947845      7.48e-09   Normal BFGS step
    9     -93.4191947845      1.81e-09   Normal BFGS step
   10     -93.4191947845      8.41e-11   Normal BFGS step
  GDM::WARNING energy changes are now smaller than effective accuracy.
  GDM::        calculation will continue, but THRESH should be increased
  GDM::        or SCF_CONVERGENCE decreased. 
  GDM::        effective_thresh = 1.11e-09
   11     -93.4191947845      2.17e-11   Normal BFGS step
   12     -93.4191947845      5.57e-12   Normal BFGS step
   13     -93.4191947845      5.57e-12  Convergence criterion met
 Electronic Block
 ---------------------------------------
  Cycle       Energy        RMS Gradient
 ---------------------------------------
    1     -93.4191947859      1.81e-05   Normal BFGS step
    2     -93.4191947831      6.53e-05   Normal BFGS step
    3     -93.4191947864      2.48e-06   Normal BFGS step
    4     -93.4191947864      2.25e-06   Normal BFGS step
    5     -93.4191947865      3.00e-08   Normal BFGS step
    6     -93.4191947865      1.00e-08   Normal BFGS step
    7     -93.4191947865      8.02e-11   Normal BFGS step
    8     -93.4191947865      2.80e-11   Normal BFGS step
  GDM::WARNING energy changes are now smaller than effective accuracy.
  GDM::        calculation will continue, but THRESH should be increased
  GDM::        or SCF_CONVERGENCE decreased. 
  GDM::        effective_thresh = 1.82e-11
    9     -93.4191947865      4.16e-11   Normal BFGS step
  GDM::WARNING energy changes are now smaller than effective accuracy.
  GDM::        calculation will continue, but THRESH should be increased
  GDM::        or SCF_CONVERGENCE decreased. 
  GDM::        effective_thresh = 2.80e-10
   10     -93.4191947865      2.39e-11   Normal BFGS step
   11     -93.4191947865      1.67e-12   Normal BFGS step
   12     -93.4191947865      1.67e-12  Convergence criterion met
 NEO-SCF Cycles 10
 Nuclear Block
 ---------------------------------------
  Cycle       Energy        RMS Gradient
 ---------------------------------------
    1     -93.4191947786      1.29e-04   Normal BFGS step
    2     -93.4191947851      5.66e-05   Normal BFGS step
    3     -93.4191947874      6.44e-06   Normal BFGS step
    4     -93.4191947874      2.17e-06   Normal BFGS step
    5     -93.4191947874      3.49e-07   Normal BFGS step
    6     -93.4191947874      7.53e-08   Normal BFGS step
    7     -93.4191947874      1.96e-08   Normal BFGS step
    8     -93.4191947874      3.67e-09   Normal BFGS step
    9     -93.4191947874      8.88e-10   Normal BFGS step
  GDM::WARNING energy changes are now smaller than effective accuracy.
  GDM::        calculation will continue, but THRESH should be increased
  GDM::        or SCF_CONVERGENCE decreased. 
  GDM::        effective_thresh = 4.28e-09
   10     -93.4191947874      4.46e-11   Normal BFGS step
   11     -93.4191947874      1.79e-11   Normal BFGS step
  GDM::WARNING energy changes are now smaller than effective accuracy.
  GDM::        calculation will continue, but THRESH should be increased
  GDM::        or SCF_CONVERGENCE decreased. 
  GDM::        effective_thresh = 4.28e-09
   12     -93.4191947874      1.05e-11   Normal BFGS step
   13     -93.4191947874      1.81e-11   Normal BFGS step
   14     -93.4191947874      5.91e-12   Normal BFGS step
   15     -93.4191947874      5.91e-12  Convergence criterion met
 Electronic Block
 ---------------------------------------
  Cycle       Energy        RMS Gradient
 ---------------------------------------
    1     -93.4191947877      1.01e-05   Normal BFGS step
    2     -93.4191947871      2.90e-05   Normal BFGS step
    3     -93.4191947879      1.22e-06   Normal BFGS step
    4     -93.4191947879      1.09e-06   Normal BFGS step
    5     -93.4191947879      1.56e-08   Normal BFGS step
    6     -93.4191947879      4.90e-09   Normal BFGS step
    7     -93.4191947879      3.93e-11   Normal BFGS step
  GDM::WARNING energy changes are now smaller than effective accuracy.
  GDM::        calculation will continue, but THRESH should be increased
  GDM::        or SCF_CONVERGENCE decreased. 
  GDM::        effective_thresh = 3.69e-11
    8     -93.4191947879      1.29e-11   Normal BFGS step
    9     -93.4191947879      1.85e-11   Normal BFGS step
  GDM::WARNING energy changes are now smaller than effective accuracy.
  GDM::        calculation will continue, but THRESH should be increased
  GDM::        or SCF_CONVERGENCE decreased. 
  GDM::        effective_thresh = 1.54e-10
   10     -93.4191947879      1.03e-11   Normal BFGS step
   11     -93.4191947879      7.20e-13   Normal BFGS step
   12     -93.4191947879      7.20e-13  Convergence criterion met
 NEO-SCF Cycles 11
 Nuclear Block
 ---------------------------------------
  Cycle       Energy        RMS Gradient
 ---------------------------------------
    1     -93.4191947860      6.31e-05   Normal BFGS step
    2     -93.4191947876      2.78e-05   Normal BFGS step
    3     -93.4191947881      3.16e-06   Normal BFGS step
    4     -93.4191947881      1.06e-06   Normal BFGS step
    5     -93.4191947881      1.71e-07   Normal BFGS step
    6     -93.4191947881      3.70e-08   Normal BFGS step
  GDM::WARNING energy changes are now smaller than effective accuracy.
  GDM::        calculation will continue, but THRESH should be increased
  GDM::        or SCF_CONVERGENCE decreased. 
  GDM::        effective_thresh = 7.10e-12
    7     -93.4191947881      9.59e-09   Normal BFGS step
    8     -93.4191947881      1.80e-09   Normal BFGS step
  GDM::WARNING energy changes are now smaller than effective accuracy.
  GDM::        calculation will continue, but THRESH should be increased
  GDM::        or SCF_CONVERGENCE decreased. 
  GDM::        effective_thresh = 7.10e-12
    9     -93.4191947881      4.33e-10   Normal BFGS step
   10     -93.4191947881      2.34e-11   Normal BFGS step
  GDM::WARNING energy changes are now smaller than effective accuracy.
  GDM::        calculation will continue, but THRESH should be increased
  GDM::        or SCF_CONVERGENCE decreased. 
  GDM::        effective_thresh = 7.10e-12
   11     -93.4191947881      5.32e-12   Normal BFGS step
   12     -93.4191947881      5.32e-12  Convergence criterion met
 Electronic Block
 ---------------------------------------
  Cycle       Energy        RMS Gradient
 ---------------------------------------
    1     -93.4191947882      5.00e-06   Normal BFGS step
    2     -93.4191947880      1.43e-05   Normal BFGS step
    3     -93.4191947882      5.96e-07   Normal BFGS step
    4     -93.4191947882      5.33e-07   Normal BFGS step
    5     -93.4191947882      7.22e-09   Normal BFGS step
    6     -93.4191947882      2.40e-09   Normal BFGS step
    7     -93.4191947882      1.93e-11   Normal BFGS step
    8     -93.4191947882      7.23e-12   Normal BFGS step
    9     -93.4191947882      7.23e-12  Convergence criterion met
 NEO-SCF Cycles 12
 Nuclear Block
 ---------------------------------------
  Cycle       Energy        RMS Gradient
 ---------------------------------------
    1     -93.4191947878      3.09e-05   Normal BFGS step
    2     -93.4191947882      1.36e-05   Normal BFGS step
    3     -93.4191947883      1.55e-06   Normal BFGS step
    4     -93.4191947883      5.21e-07   Normal BFGS step
    5     -93.4191947883      8.40e-08   Normal BFGS step
    6     -93.4191947883      1.82e-08   Normal BFGS step
  GDM::WARNING energy changes are now smaller than effective accuracy.
  GDM::        calculation will continue, but THRESH should be increased
  GDM::        or SCF_CONVERGENCE decreased. 
  GDM::        effective_thresh = 7.10e-12
    7     -93.4191947883      4.70e-09   Normal BFGS step
    8     -93.4191947883      8.82e-10   Normal BFGS step
  GDM::WARNING energy changes are now smaller than effective accuracy.
  GDM::        calculation will continue, but THRESH should be increased
  GDM::        or SCF_CONVERGENCE decreased. 
  GDM::        effective_thresh = 7.10e-12
    9     -93.4191947883      2.12e-10   Normal BFGS step
   10     -93.4191947883      2.66e-11   Normal BFGS step
  GDM::WARNING energy changes are now smaller than effective accuracy.
  GDM::        calculation will continue, but THRESH should be increased
  GDM::        or SCF_CONVERGENCE decreased. 
  GDM::        effective_thresh = 7.10e-12
   11     -93.4191947883      6.55e-12   Normal BFGS step
   12     -93.4191947883      6.55e-12  Convergence criterion met
 Electronic Block
 ---------------------------------------
  Cycle       Energy        RMS Gradient
 ---------------------------------------
    1     -93.4191947883      2.29e-06   Normal BFGS step
    2     -93.4191947883      6.39e-06   Normal BFGS step
    3     -93.4191947883      2.92e-07   Normal BFGS step
    4     -93.4191947883      2.61e-07   Normal BFGS step
    5     -93.4191947883      3.78e-09   Normal BFGS step
    6     -93.4191947883      1.18e-09   Normal BFGS step
    7     -93.4191947883      9.43e-12   Normal BFGS step
    8     -93.4191947883      9.43e-12  Convergence criterion met

 E(NEO-SCF) = -93.4191947883
 NEO SCF time:       CPU 1096.22s  wall 264.72s 

 ---------------------------------------
 Electronic Orbital Energies (a.u.)
 ---------------------------------------
 Alpha MOs
  -- Occupied --
  -14.3548   -10.2415    -0.9210    -0.5946    -0.3810    -0.3599    -0.3599 
  -- Virtual --
    0.0159     0.0159     0.0519     0.2066     0.4612     0.4612     0.5614     0.6701 
    0.7381     0.7893     0.7893     0.9954     1.0773     1.0773     1.0996     1.0996 
    1.4438     1.7049     1.7049     1.8775     1.8775     2.0658     2.5536     2.5536 
    2.7980     3.1224 
 ---------------------------------------
 Nuclear Orbital Energies (a.u.)
 ---------------------------------------
  -- Occupied --
   -0.8862 
  -- Virtual --
   -0.8759    -0.8759    -0.8722    -0.8670    -0.8662    -0.8662    -0.8617    -0.8617 
   -0.8585    -0.8484    -0.8484    -0.8411    -0.8307    -0.8304    -0.8303    -0.8224 
   -0.8224    -0.8156    -0.8102    -0.8102    -0.7985    -0.7931    -0.7925    -0.7925 
   -0.7819    -0.7819    -0.7718    -0.7703    -0.7703    -0.7539    -0.7535    -0.7534 
   -0.7520    -0.7398    -0.7398    -0.7292    -0.7279    -0.7279    -0.7163    -0.7150 
   -0.7150    -0.7059    -0.7026    -0.7026    -0.6863    -0.6863    -0.6818    -0.6764 
   -0.6762    -0.6589    -0.6429    -0.6429    -0.6366    -0.6135    -0.6135    -0.6107 
   -0.6105    -0.6065    -0.5754    -0.5634    -0.5634    -0.5379    -0.5262    -0.5261 
   -0.5005    -0.5005    -0.4664    -0.3517    -0.3517    -0.2234     0.2313 
 ---------------------------------------
expectation value of proton 0 : 0.00000000 0.00000000 -3.01499845
Protonic dipole moment: 
Dx: 0.0000000 DY: 0.0000000 Dz: -7.6634205
Electronic dipole moment: 
Dx: -0.0000000 DY: -0.0000000 Dz: -2.8004466
Total dipole moment: 
Dx: 0.0000000 DY: 0.0000000 Dz: -2.9089582 Total 2.9089582
 
Ground-State Mulliken Net Atomic Charges
 
     Atom                 Charge (a.u.)
  ----------------------------------------
      0                    -0.101527
      1                    -0.085827
      2                    0.187355
  Sum of atomic charges =     0.000000
write out proton density

 Excited-state NEO-SCF calculation
e_davidson_thresh: -9.999990
Starting NEO-TDDFT guess with 65number of protonic guess
Davidson diagonalization: calculating 150number of states out of 253 number of states in total 
states.size1
states: 0
states: 0
Davidson diagonalization of matvec NEO  (A-B)^0.5(A+B)(A-B)^0.5 matrix: build A+B and A-B together
ind_e(i-m_pspace)+p_size 227
i 65
ind_e(i-m_pspace)+p_size 201
i 66
ind_e(i-m_pspace)+p_size 228
i 67
ind_e(i-m_pspace)+p_size 202
i 68
ind_e(i-m_pspace)+p_size 175
i 69
ind_e(i-m_pspace)+p_size 176
i 70
ind_e(i-m_pspace)+p_size 229
i 71
ind_e(i-m_pspace)+p_size 203
i 72
ind_e(i-m_pspace)+p_size 177
i 73
ind_e(i-m_pspace)+p_size 230
i 74
ind_e(i-m_pspace)+p_size 204
i 75
ind_e(i-m_pspace)+p_size 178
i 76
ind_e(i-m_pspace)+p_size 149
i 77
ind_e(i-m_pspace)+p_size 150
i 78
ind_e(i-m_pspace)+p_size 151
i 79
ind_e(i-m_pspace)+p_size 152
i 80
ind_e(i-m_pspace)+p_size 231
i 81
ind_e(i-m_pspace)+p_size 205
i 82
ind_e(i-m_pspace)+p_size 232
i 83
ind_e(i-m_pspace)+p_size 206
i 84
ind_e(i-m_pspace)+p_size 179
i 85
ind_e(i-m_pspace)+p_size 180
i 86
ind_e(i-m_pspace)+p_size 233
i 87
ind_e(i-m_pspace)+p_size 207
i 88
ind_e(i-m_pspace)+p_size 123
i 89
ind_e(i-m_pspace)+p_size 124
i 90
ind_e(i-m_pspace)+p_size 181
i 91
ind_e(i-m_pspace)+p_size 125
i 92
ind_e(i-m_pspace)+p_size 234
i 93
ind_e(i-m_pspace)+p_size 208
i 94
ind_e(i-m_pspace)+p_size 182
i 95
ind_e(i-m_pspace)+p_size 153
i 96
ind_e(i-m_pspace)+p_size 154
i 97
ind_e(i-m_pspace)+p_size 235
i 98
ind_e(i-m_pspace)+p_size 209
i 99
ind_e(i-m_pspace)+p_size 183
i 100
ind_e(i-m_pspace)+p_size 126
i 101
ind_e(i-m_pspace)+p_size 236
i 102
ind_e(i-m_pspace)+p_size 210
i 103
ind_e(i-m_pspace)+p_size 237
i 104
ind_e(i-m_pspace)+p_size 211
i 105
ind_e(i-m_pspace)+p_size 155
i 106
ind_e(i-m_pspace)+p_size 184
i 107
ind_e(i-m_pspace)+p_size 185
i 108
ind_e(i-m_pspace)+p_size 156
i 109
ind_e(i-m_pspace)+p_size 157
i 110
ind_e(i-m_pspace)+p_size 238
i 111
ind_e(i-m_pspace)+p_size 212
i 112
ind_e(i-m_pspace)+p_size 186
i 113
ind_e(i-m_pspace)+p_size 127
i 114
ind_e(i-m_pspace)+p_size 128
i 115
ind_e(i-m_pspace)+p_size 158
i 116
ind_e(i-m_pspace)+p_size 159
i 117
ind_e(i-m_pspace)+p_size 239
i 118
ind_e(i-m_pspace)+p_size 213
i 119
ind_e(i-m_pspace)+p_size 240
i 120
ind_e(i-m_pspace)+p_size 214
i 121
ind_e(i-m_pspace)+p_size 187
i 122
ind_e(i-m_pspace)+p_size 188
i 123
ind_e(i-m_pspace)+p_size 241
i 124
ind_e(i-m_pspace)+p_size 215
i 125
ind_e(i-m_pspace)+p_size 242
i 126
ind_e(i-m_pspace)+p_size 216
i 127
ind_e(i-m_pspace)+p_size 189
i 128
ind_e(i-m_pspace)+p_size 190
i 129
ind_e(i-m_pspace)+p_size 129
i 130
ind_e(i-m_pspace)+p_size 160
i 131
ind_e(i-m_pspace)+p_size 130
i 132
ind_e(i-m_pspace)+p_size 131
i 133
ind_e(i-m_pspace)+p_size 161
i 134
ind_e(i-m_pspace)+p_size 162
i 135
ind_e(i-m_pspace)+p_size 163
i 136
ind_e(i-m_pspace)+p_size 164
i 137
ind_e(i-m_pspace)+p_size 132
i 138
ind_e(i-m_pspace)+p_size 133
i 139
ind_e(i-m_pspace)+p_size 243
i 140
ind_e(i-m_pspace)+p_size 217
i 141
ind_e(i-m_pspace)+p_size 191
i 142
ind_e(i-m_pspace)+p_size 134
i 143
ind_e(i-m_pspace)+p_size 135
i 144
ind_e(i-m_pspace)+p_size 136
i 145
ind_e(i-m_pspace)+p_size 137
i 146
ind_e(i-m_pspace)+p_size 138
i 147
ind_e(i-m_pspace)+p_size 165
i 148
ind_e(i-m_pspace)+p_size 244
i 149
  Iter	 Eigs       Residual       DE
Matvec time for each step:       CPU 222.95s  wall 40.46s 
Av.n_rows150
edav 0.00
                 resid 3.597036503131922e-03 r_conv: 9.999999974752427e-07
                 resid 3.597035942989774e-03 r_conv: 9.999999974752427e-07
                 resid 4.155392581736569e-03 r_conv: 9.999999974752427e-07
                 resid 1.403738498576186e-03 r_conv: 9.999999974752427e-07
                 resid 8.383935818464717e-05 r_conv: 9.999999974752427e-07
                 resid 1.028406480304858e-04 r_conv: 9.999999974752427e-07
                 resid 2.425464337645573e-04 r_conv: 9.999999974752427e-07
                 resid 2.459837717818410e-04 r_conv: 9.999999974752427e-07
                 resid 4.274328363087968e-04 r_conv: 9.999999974752427e-07
                 resid 8.478433991007286e-05 r_conv: 9.999999974752427e-07
                 resid 8.481701384825205e-05 r_conv: 9.999999974752427e-07
                 resid 2.514781997463778e-04 r_conv: 9.999999974752427e-07
                 resid 4.644233600064892e-04 r_conv: 9.999999974752427e-07
                 resid 6.688831749262703e-06 r_conv: 9.999999974752427e-07
                 resid 8.673824546355662e-06 r_conv: 9.999999974752427e-07
                 resid 2.992071599179572e-05 r_conv: 9.999999974752427e-07
                 resid 3.422348964202091e-05 r_conv: 9.999999974752427e-07
                 resid 2.435043330970257e-04 r_conv: 9.999999974752427e-07
                 resid 1.643520809658772e-04 r_conv: 9.999999974752427e-07
                 resid 1.646166806075778e-04 r_conv: 9.999999974752427e-07
                 resid 3.261446047027610e-04 r_conv: 9.999999974752427e-07
                 resid 2.113615151592735e-04 r_conv: 9.999999974752427e-07
                 resid 4.576821254985616e-06 r_conv: 9.999999974752427e-07
                 resid 3.557738554147473e-06 r_conv: 9.999999974752427e-07
                 resid 1.207038717390423e-04 r_conv: 9.999999974752427e-07
                 resid 1.461299334613590e-04 r_conv: 9.999999974752427e-07
                 resid 1.999484786354448e-04 r_conv: 9.999999974752427e-07
                 resid 1.244367570842468e-04 r_conv: 9.999999974752427e-07
                 resid 1.317213157185527e-04 r_conv: 9.999999974752427e-07
                 resid 1.460656102116674e-04 r_conv: 9.999999974752427e-07
                 resid 8.209872717288541e-06 r_conv: 9.999999974752427e-07
                 resid 6.369568584059423e-06 r_conv: 9.999999974752427e-07
                 resid 1.191587729620641e-04 r_conv: 9.999999974752427e-07
                 resid 3.361714204675253e-05 r_conv: 9.999999974752427e-07
                 resid 3.369861304928132e-05 r_conv: 9.999999974752427e-07
                 resid 6.540045923853287e-05 r_conv: 9.999999974752427e-07
                 resid 2.341101937022574e-05 r_conv: 9.999999974752427e-07
                 resid 2.894368796338255e-05 r_conv: 9.999999974752427e-07
                 resid 1.425946979532071e-04 r_conv: 9.999999974752427e-07
                 resid 7.150024882124548e-07 r_conv: 9.999999974752427e-07
                 resid 8.832846965804049e-07 r_conv: 9.999999974752427e-07
                 resid 1.018227105238410e-04 r_conv: 9.999999974752427e-07
                 resid 9.468493333300609e-05 r_conv: 9.999999974752427e-07
                 resid 1.035517656858863e-04 r_conv: 9.999999974752427e-07
                 resid 3.506807462951082e-05 r_conv: 9.999999974752427e-07
                 resid 6.260500484718625e-05 r_conv: 9.999999974752427e-07
                 resid 1.081688055459965e-04 r_conv: 9.999999974752427e-07
                 resid 2.992531035774576e-06 r_conv: 9.999999974752427e-07
                 resid 3.795161465845018e-06 r_conv: 9.999999974752427e-07
                 resid 6.287500064650861e-05 r_conv: 9.999999974752427e-07
                 resid 4.742385680726610e-05 r_conv: 9.999999974752427e-07
                 resid 4.989488184607181e-05 r_conv: 9.999999974752427e-07
                 resid 8.973087265932327e-05 r_conv: 9.999999974752427e-07
                 resid 2.310095171574288e-05 r_conv: 9.999999974752427e-07
                 resid 4.617177911906023e-05 r_conv: 9.999999974752427e-07
                 resid 3.022353775542900e-06 r_conv: 9.999999974752427e-07
                 resid 2.482806937237536e-06 r_conv: 9.999999974752427e-07
                 resid 7.348726447860034e-05 r_conv: 9.999999974752427e-07
                 resid 2.470747850037886e-04 r_conv: 9.999999974752427e-07
                 resid 7.138727198028353e-04 r_conv: 9.999999974752427e-07
                 resid 7.138335005153733e-04 r_conv: 9.999999974752427e-07
                 resid 2.448375124604170e-05 r_conv: 9.999999974752427e-07
                 resid 2.054196409316867e-05 r_conv: 9.999999974752427e-07
                 resid 2.056797299041943e-05 r_conv: 9.999999974752427e-07
                 resid 4.160510945790373e-03 r_conv: 9.999999974752427e-07
                 resid 4.160511789172358e-03 r_conv: 9.999999974752427e-07
                 resid 5.026594181156288e-05 r_conv: 9.999999974752427e-07
                 resid 1.781960523754025e-06 r_conv: 9.999999974752427e-07
                 resid 1.555108839867510e-06 r_conv: 9.999999974752427e-07
                 resid 9.121490785714324e-04 r_conv: 9.999999974752427e-07
                 resid 9.121508269467367e-04 r_conv: 9.999999974752427e-07
                 resid 1.442273589783207e-05 r_conv: 9.999999974752427e-07
                 resid 8.810692230059948e-04 r_conv: 9.999999974752427e-07
                 resid 2.926776411882942e-03 r_conv: 9.999999974752427e-07
                 resid 1.195870378079251e-03 r_conv: 9.999999974752427e-07
                 resid 1.195869233061601e-03 r_conv: 9.999999974752427e-07
                 resid 1.421130575843234e-03 r_conv: 9.999999974752427e-07
                 resid 2.384178270488467e-03 r_conv: 9.999999974752427e-07
                 resid 2.384176067720871e-03 r_conv: 9.999999974752427e-07
                 resid 1.582178661327344e-03 r_conv: 9.999999974752427e-07
                 resid 2.529529999514200e-04 r_conv: 9.999999974752427e-07
                 resid 2.574404156540689e-04 r_conv: 9.999999974752427e-07
                 resid 1.584111646549298e-04 r_conv: 9.999999974752427e-07
                 resid 2.010387792054627e-03 r_conv: 9.999999974752427e-07
                 resid 1.294370429205097e-03 r_conv: 9.999999974752427e-07
                 resid 1.294370426034171e-03 r_conv: 9.999999974752427e-07
                 resid 3.291783486910784e-03 r_conv: 9.999999974752427e-07
                 resid 9.943523413146250e-04 r_conv: 9.999999974752427e-07
                 resid 9.943520868430850e-04 r_conv: 9.999999974752427e-07
                 resid 3.815003726435325e-03 r_conv: 9.999999974752427e-07
                 resid 3.815003689909096e-03 r_conv: 9.999999974752427e-07
                 resid 2.933402300284002e-03 r_conv: 9.999999974752427e-07
                 resid 1.843135607420830e-03 r_conv: 9.999999974752427e-07
                 resid 3.020837298673229e-03 r_conv: 9.999999974752427e-07
                 resid 3.020837248380375e-03 r_conv: 9.999999974752427e-07
                 resid 1.703813383087849e-03 r_conv: 9.999999974752427e-07
                 resid 1.703813058034456e-03 r_conv: 9.999999974752427e-07
                 resid 2.876515776125900e-03 r_conv: 9.999999974752427e-07
                 resid 1.921019351723706e-03 r_conv: 9.999999974752427e-07
                 resid 1.921019264254173e-03 r_conv: 9.999999974752427e-07
                 resid 5.979843246049226e-04 r_conv: 9.999999974752427e-07
                 resid 6.176632175618977e-04 r_conv: 9.999999974752427e-07
                 resid 1.166861823735032e-03 r_conv: 9.999999974752427e-07
                 resid 5.646739719326414e-04 r_conv: 9.999999974752427e-07
                 resid 1.142775793207402e-03 r_conv: 9.999999974752427e-07
                 resid 1.428395771523372e-03 r_conv: 9.999999974752427e-07
                 resid 1.428395768684964e-03 r_conv: 9.999999974752427e-07
                 resid 2.574869040601140e-03 r_conv: 9.999999974752427e-07
                 resid 1.501860824038197e-03 r_conv: 9.999999974752427e-07
                 resid 5.469134109452377e-03 r_conv: 9.999999974752427e-07
                 resid 2.281575885094674e-03 r_conv: 9.999999974752427e-07
                 resid 2.281575837751821e-03 r_conv: 9.999999974752427e-07
                 resid 1.386057188991318e-03 r_conv: 9.999999974752427e-07
                 resid 1.386057188142276e-03 r_conv: 9.999999974752427e-07
                 resid 3.668120875132563e-03 r_conv: 9.999999974752427e-07
                 resid 1.147417190586442e-03 r_conv: 9.999999974752427e-07
                 resid 1.147417155590279e-03 r_conv: 9.999999974752427e-07
                 resid 8.303855600259063e-04 r_conv: 9.999999974752427e-07
                 resid 1.120095074950986e-03 r_conv: 9.999999974752427e-07
                 resid 7.978266266393966e-04 r_conv: 9.999999974752427e-07
                 resid 1.127626875391138e-05 r_conv: 9.999999974752427e-07
                 resid 1.127626878436937e-05 r_conv: 9.999999974752427e-07
                 resid 4.814629252726799e-03 r_conv: 9.999999974752427e-07
                 resid 1.757645097869847e-03 r_conv: 9.999999974752427e-07
                 resid 1.757644150972840e-03 r_conv: 9.999999974752427e-07
                 resid 8.386736809988767e-04 r_conv: 9.999999974752427e-07
                 resid 8.386219460852417e-04 r_conv: 9.999999974752427e-07
                 resid 3.137008765930993e-03 r_conv: 9.999999974752427e-07
                 resid 4.801263995759642e-03 r_conv: 9.999999974752427e-07
                 resid 5.511627964511298e-03 r_conv: 9.999999974752427e-07
                 resid 5.511627934771561e-03 r_conv: 9.999999974752427e-07
                 resid 3.826931630023179e-03 r_conv: 9.999999974752427e-07
                 resid 2.775222831892044e-03 r_conv: 9.999999974752427e-07
                 resid 6.611741418275376e-04 r_conv: 9.999999974752427e-07
                 resid 6.783581367825597e-04 r_conv: 9.999999974752427e-07
                 resid 3.097656403649712e-03 r_conv: 9.999999974752427e-07
                 resid 3.688963287211272e-03 r_conv: 9.999999974752427e-07
                 resid 3.688963268885467e-03 r_conv: 9.999999974752427e-07
                 resid 2.357701869248969e-03 r_conv: 9.999999974752427e-07
                 resid 2.357678689869016e-03 r_conv: 9.999999974752427e-07
                 resid 1.842098202527171e-03 r_conv: 9.999999974752427e-07
                 resid 1.842097823314240e-03 r_conv: 9.999999974752427e-07
                 resid 5.606905033719850e-03 r_conv: 9.999999974752427e-07
                 resid 5.960107801696247e-03 r_conv: 9.999999974752427e-07
                 resid 1.970446492082698e-03 r_conv: 9.999999974752427e-07
                 resid 1.970446284953814e-03 r_conv: 9.999999974752427e-07
                 resid 7.293307171349794e-04 r_conv: 9.999999974752427e-07
                 resid 7.299830846387396e-04 r_conv: 9.999999974752427e-07
                 resid 2.309988701925626e-03 r_conv: 9.999999974752427e-07
                 resid 3.064864604728788e-03 r_conv: 9.999999974752427e-07
  000	  0.01605 3.597037e-03 nan 
		  0.01605 3.597036e-03 nan 
		  0.02282 4.155393e-03 nan 
		  0.02779 1.403738e-03 nan 
		  0.03424 8.383936e-05 nan 
		  0.03425 1.028406e-04 nan 
		  0.04076 2.425464e-04 nan 
		  0.04076 2.459838e-04 nan 
		  0.04403 4.274328e-04 nan 
		  0.04454 8.478434e-05 nan 
		  0.04454 8.481701e-05 nan 
		  0.05295 2.514782e-04 nan 
		  0.06384 4.644234e-04 nan 
		  0.06524 6.688832e-06 nan 
		  0.06526 8.673825e-06 nan 
		  0.07376 2.992072e-05 nan 
		  0.07376 3.422349e-05 nan 
		  0.08045 2.435043e-04 nan 
		  0.08466 1.643521e-04 nan 
		  0.08466 1.646167e-04 nan 
		  0.09716 3.261446e-04 nan 
		  0.10020 2.113615e-04 nan 
		  0.10192 4.576821e-06 nan 
		  0.10193 3.557739e-06 nan 
		  0.11261 1.207039e-04 nan 
		  0.11262 1.461299e-04 nan 
		  0.12184 1.999485e-04 nan 
		  0.12253 1.244368e-04 nan 
		  0.12254 1.317213e-04 nan 
		  0.13827 1.460656e-04 nan 
		  0.13868 8.209873e-06 nan 
		  0.13875 6.369569e-06 nan 
		  0.14148 1.191588e-04 nan 
		  0.15261 3.361714e-05 nan 
		  0.15261 3.369861e-05 nan 
		  0.16372 6.540046e-05 nan 
		  0.16492 2.341102e-05 nan 
		  0.16493 2.894369e-05 nan 
		  0.17426 1.425947e-04 nan 
		  0.17739 7.150025e-07 nan 
		  0.17742 8.832847e-07 nan 
		  0.18691 1.018227e-04 nan 
		  0.18787 9.468493e-05 nan 
		  0.18788 1.035518e-04 nan 
		  0.20480 3.506807e-05 nan 
		  0.20481 6.260500e-05 nan 
		  0.20764 1.081688e-04 nan 
		  0.21271 2.992531e-06 nan 
		  0.21290 3.795161e-06 nan 
		  0.22844 6.287500e-05 nan 
		  0.24406 4.742386e-05 nan 
		  0.24406 4.989488e-05 nan 
		  0.25134 8.973087e-05 nan 
		  0.27387 2.310095e-05 nan 
		  0.27388 4.617178e-05 nan 
		  0.27600 3.022354e-06 nan 
		  0.27623 2.482807e-06 nan 
		  0.28076 7.348726e-05 nan 
		  0.28980 2.470748e-04 nan 
		  0.30225 7.138727e-04 nan 
		  0.30225 7.138335e-04 nan 
		  0.31104 2.448375e-05 nan 
		  0.32299 2.054196e-05 nan 
		  0.32299 2.056797e-05 nan 
		  0.34741 4.160511e-03 nan 
		  0.34741 4.160512e-03 nan 
		  0.34853 5.026594e-05 nan 
		  0.36014 1.781961e-06 nan 
		  0.36025 1.555109e-06 nan 
		  0.36473 9.121491e-04 nan 
		  0.36473 9.121508e-04 nan 
		  0.38603 1.442274e-05 nan 
		  0.39015 8.810692e-04 nan 
		  0.49132 2.926776e-03 nan 
		  0.51547 1.195870e-03 nan 
		  0.51547 1.195869e-03 nan 
		  0.53830 1.421131e-03 nan 
		  0.58391 2.384178e-03 nan 
		  0.58391 2.384176e-03 nan 
		  0.62045 1.582179e-03 nan 
		  0.74213 2.529530e-04 nan 
		  0.74213 2.574404e-04 nan 
		  0.74682 1.584112e-04 nan 
		  0.78359 2.010388e-03 nan 
		  0.78532 1.294370e-03 nan 
		  0.78532 1.294370e-03 nan 
		  0.85520 3.291783e-03 nan 
		  0.85851 9.943523e-04 nan 
		  0.85851 9.943521e-04 nan 
		  0.88055 3.815004e-03 nan 
		  0.88055 3.815004e-03 nan 
		  0.92498 2.933402e-03 nan 
		  0.93570 1.843136e-03 nan 
		  0.96607 3.020837e-03 nan 
		  0.96607 3.020837e-03 nan 
		  0.98175 1.703813e-03 nan 
		  0.98175 1.703813e-03 nan 
		  1.03476 2.876516e-03 nan 
		  1.03758 1.921019e-03 nan 
		  1.03758 1.921019e-03 nan 
		  1.06312 5.979843e-04 nan 
		  1.06312 6.176632e-04 nan 
		  1.06520 1.166862e-03 nan 
		  1.06802 5.646740e-04 nan 
		  1.07212 1.142776e-03 nan 
		  1.08061 1.428396e-03 nan 
		  1.08061 1.428396e-03 nan 
		  1.14200 2.574869e-03 nan 
		  1.21842 1.501861e-03 nan 
		  1.22565 5.469134e-03 nan 
		  1.27569 2.281576e-03 nan 
		  1.27569 2.281576e-03 nan 
		  1.31194 1.386057e-03 nan 
		  1.31194 1.386057e-03 nan 
		  1.32861 3.668121e-03 nan 
		  1.33156 1.147417e-03 nan 
		  1.33156 1.147417e-03 nan 
		  1.36010 8.303856e-04 nan 
		  1.36032 1.120095e-03 nan 
		  1.36247 7.978266e-04 nan 
		  1.36292 1.127627e-05 nan 
		  1.36292 1.127627e-05 nan 
		  1.37776 4.814629e-03 nan 
		  1.39626 1.757645e-03 nan 
		  1.39626 1.757644e-03 nan 
		  1.40902 8.386737e-04 nan 
		  1.40902 8.386219e-04 nan 
		  1.42963 3.137009e-03 nan 
		  1.44427 4.801264e-03 nan 
		  1.50312 5.511628e-03 nan 
		  1.50312 5.511628e-03 nan 
		  1.53323 3.826932e-03 nan 
		  1.55527 2.775223e-03 nan 
		  1.61196 6.611741e-04 nan 
		  1.61197 6.783581e-04 nan 
		  1.61543 3.097656e-03 nan 
		  1.63762 3.688963e-03 nan 
		  1.63762 3.688963e-03 nan 
		  1.65060 2.357702e-03 nan 
		  1.65060 2.357679e-03 nan 
		  1.73473 1.842098e-03 nan 
		  1.73473 1.842098e-03 nan 
		  1.80367 5.606905e-03 nan 
		  1.92865 5.960108e-03 nan 
		  1.94554 1.970446e-03 nan 
		  1.94554 1.970446e-03 nan 
		  1.94600 7.293307e-04 nan 
		  1.94610 7.299831e-04 nan 
		  1.99178 2.309989e-03 nan 
		  2.00212 3.064865e-03 nan 
		
Calculation of residuals for root 0
Calculation of residuals for root 1
Calculation of residuals for root 2
Calculation of residuals for root 3
Calculation of residuals for root 4
Calculation of residuals for root 5
Calculation of residuals for root 6
Calculation of residuals for root 7
Calculation of residuals for root 8
Calculation of residuals for root 9
Calculation of residuals for root 10
Calculation of residuals for root 11
Calculation of residuals for root 12
Calculation of residuals for root 13
Calculation of residuals for root 14
Calculation of residuals for root 15
Calculation of residuals for root 16
Calculation of residuals for root 17
Calculation of residuals for root 18
Calculation of residuals for root 19
Calculation of residuals for root 20
Calculation of residuals for root 21
Calculation of residuals for root 22
Calculation of residuals for root 23
Calculation of residuals for root 24
Calculation of residuals for root 25
Calculation of residuals for root 26
Calculation of residuals for root 27
Calculation of residuals for root 28
Calculation of residuals for root 29
Calculation of residuals for root 30
Calculation of residuals for root 31
Calculation of residuals for root 32
Calculation of residuals for root 33
Calculation of residuals for root 34
Calculation of residuals for root 35
Calculation of residuals for root 36
Calculation of residuals for root 37
Calculation of residuals for root 38
Calculation of residuals for root 41
Calculation of residuals for root 42
Calculation of residuals for root 43
Calculation of residuals for root 44
Calculation of residuals for root 45
Calculation of residuals for root 46
Calculation of residuals for root 47
Calculation of residuals for root 48
Calculation of residuals for root 49
Calculation of residuals for root 50
Calculation of residuals for root 51
Calculation of residuals for root 52
Calculation of residuals for root 53
Calculation of residuals for root 54
Calculation of residuals for root 55
Calculation of residuals for root 56
Calculation of residuals for root 57
Calculation of residuals for root 58
Calculation of residuals for root 59
Calculation of residuals for root 60
Calculation of residuals for root 61
Calculation of residuals for root 62
Calculation of residuals for root 63
Calculation of residuals for root 64
Calculation of residuals for root 65
Calculation of residuals for root 66
Calculation of residuals for root 67
Calculation of residuals for root 68
Calculation of residuals for root 69
Calculation of residuals for root 70
Calculation of residuals for root 71
Calculation of residuals for root 72
Calculation of residuals for root 73
Calculation of residuals for root 74
Calculation of residuals for root 75
Calculation of residuals for root 76
Calculation of residuals for root 77
Calculation of residuals for root 78
Calculation of residuals for root 79
Calculation of residuals for root 80
Calculation of residuals for root 81
Calculation of residuals for root 82
Calculation of residuals for root 83
Calculation of residuals for root 84
Calculation of residuals for root 85
Calculation of residuals for root 86
Calculation of residuals for root 87
Calculation of residuals for root 88
Calculation of residuals for root 89
Calculation of residuals for root 90
Calculation of residuals for root 91
Calculation of residuals for root 92
Calculation of residuals for root 93
Calculation of residuals for root 94
Calculation of residuals for root 95
Calculation of residuals for root 96
Calculation of residuals for root 97
Calculation of residuals for root 98
Calculation of residuals for root 99
Calculation of residuals for root 100
Calculation of residuals for root 101
Calculation of residuals for root 102
Calculation of residuals for root 103
Calculation of residuals for root 104
Calculation of residuals for root 105
Calculation of residuals for root 106
Calculation of residuals for root 107
Calculation of residuals for root 108
Calculation of residuals for root 109
Calculation of residuals for root 110
Calculation of residuals for root 111
Calculation of residuals for root 112
Calculation of residuals for root 113
Calculation of residuals for root 114
Calculation of residuals for root 115
Calculation of residuals for root 116
Calculation of residuals for root 117
Calculation of residuals for root 118
Calculation of residuals for root 119
Calculation of residuals for root 120
Calculation of residuals for root 121
Calculation of residuals for root 122
Calculation of residuals for root 123
Calculation of residuals for root 124
Calculation of residuals for root 125
Calculation of residuals for root 126
Calculation of residuals for root 127
Calculation of residuals for root 128
Calculation of residuals for root 129
Calculation of residuals for root 130
Calculation of residuals for root 131
Calculation of residuals for root 132
Calculation of residuals for root 133
Calculation of residuals for root 134
Calculation of residuals for root 135
Calculation of residuals for root 136
Calculation of residuals for root 137
Calculation of residuals for root 138
Calculation of residuals for root 139
Calculation of residuals for root 140
Calculation of residuals for root 141
Calculation of residuals for root 142
Calculation of residuals for root 143
Calculation of residuals for root 144
Calculation of residuals for root 145
Calculation of residuals for root 146
Calculation of residuals for root 147
Calculation of residuals for root 148
Calculation of residuals for root 149
adding 52 number of vectors to Krylov space
vSPace.n_cols 202
Matvec time for each step:       CPU 298.05s  wall 53.40s 
Av.n_rows202
edav 0.00
                 resid 1.379906720289295e-05 r_conv: 9.999999974752427e-07
                 resid 3.501022435550237e-05 r_conv: 9.999999974752427e-07
                 resid 2.006735371610272e-05 r_conv: 9.999999974752427e-07
                 resid 9.757608313687615e-06 r_conv: 9.999999974752427e-07
                 resid 2.484274515827826e-07 r_conv: 9.999999974752427e-07
                 resid 1.674067453190511e-07 r_conv: 9.999999974752427e-07
                 resid 5.623001960980415e-07 r_conv: 9.999999974752427e-07
                 resid 7.476520547945847e-07 r_conv: 9.999999974752427e-07
                 resid 2.502379395978479e-06 r_conv: 9.999999974752427e-07
                 resid 2.923347521866623e-07 r_conv: 9.999999974752427e-07
                 resid 7.913711407360197e-07 r_conv: 9.999999974752427e-07
                 resid 7.569887584048723e-07 r_conv: 9.999999974752427e-07
                 resid 3.603220778402745e-06 r_conv: 9.999999974752427e-07
                 resid 2.234964170062156e-08 r_conv: 9.999999974752427e-07
                 resid 1.446773691815038e-08 r_conv: 9.999999974752427e-07
                 resid 7.837318905082951e-08 r_conv: 9.999999974752427e-07
                 resid 7.885126683494573e-08 r_conv: 9.999999974752427e-07
                 resid 1.735929679415869e-06 r_conv: 9.999999974752427e-07
                 resid 5.480881213215658e-07 r_conv: 9.999999974752427e-07
                 resid 1.442172048991789e-06 r_conv: 9.999999974752427e-07
                 resid 1.963589356072199e-06 r_conv: 9.999999974752427e-07
                 resid 1.509207110471884e-06 r_conv: 9.999999974752427e-07
                 resid 8.156352555352573e-09 r_conv: 9.999999974752427e-07
                 resid 1.169728136540431e-08 r_conv: 9.999999974752427e-07
                 resid 3.786954699347564e-07 r_conv: 9.999999974752427e-07
                 resid 9.963072585394481e-07 r_conv: 9.999999974752427e-07
                 resid 4.139371578394483e-07 r_conv: 9.999999974752427e-07
                 resid 4.104786441072216e-07 r_conv: 9.999999974752427e-07
                 resid 9.912700596427975e-07 r_conv: 9.999999974752427e-07
                 resid 1.122937671628893e-06 r_conv: 9.999999974752427e-07
                 resid 1.537472856303333e-08 r_conv: 9.999999974752427e-07
                 resid 2.306090444678247e-08 r_conv: 9.999999974752427e-07
                 resid 5.754996629120729e-07 r_conv: 9.999999974752427e-07
                 resid 1.250697267748367e-07 r_conv: 9.999999974752427e-07
                 resid 3.141098107013814e-07 r_conv: 9.999999974752427e-07
                 resid 2.578057506448411e-07 r_conv: 9.999999974752427e-07
                 resid 1.586903724674832e-07 r_conv: 9.999999974752427e-07
                 resid 1.900365973704812e-07 r_conv: 9.999999974752427e-07
                 resid 1.087169488536780e-06 r_conv: 9.999999974752427e-07
                 resid 4.256612344244859e-09 r_conv: 9.999999974752427e-07
                 resid 3.418367486707949e-09 r_conv: 9.999999974752427e-07
                 resid 5.993829408442849e-07 r_conv: 9.999999974752427e-07
                 resid 3.654423129252846e-07 r_conv: 9.999999974752427e-07
                 resid 8.431387193591730e-07 r_conv: 9.999999974752427e-07
                 resid 1.736382187246474e-07 r_conv: 9.999999974752427e-07
                 resid 4.317836687544550e-07 r_conv: 9.999999974752427e-07
                 resid 4.350058985992504e-07 r_conv: 9.999999974752427e-07
                 resid 9.845828908041851e-09 r_conv: 9.999999974752427e-07
                 resid 6.757369178222225e-09 r_conv: 9.999999974752427e-07
                 resid 3.182389293508706e-07 r_conv: 9.999999974752427e-07
                 resid 2.275819580798543e-07 r_conv: 9.999999974752427e-07
                 resid 3.795838836433861e-07 r_conv: 9.999999974752427e-07
                 resid 3.269911471265472e-07 r_conv: 9.999999974752427e-07
                 resid 4.931391655303861e-08 r_conv: 9.999999974752427e-07
                 resid 6.765609803385707e-07 r_conv: 9.999999974752427e-07
                 resid 7.088651269611523e-09 r_conv: 9.999999974752427e-07
                 resid 8.237441811078598e-09 r_conv: 9.999999974752427e-07
                 resid 4.085067056735911e-07 r_conv: 9.999999974752427e-07
                 resid 2.647135296306653e-08 r_conv: 9.999999974752427e-07
                 resid 3.050534873065815e-06 r_conv: 9.999999974752427e-07
                 resid 3.235583233959325e-06 r_conv: 9.999999974752427e-07
                 resid 1.686058714656429e-07 r_conv: 9.999999974752427e-07
                 resid 9.851367980824783e-08 r_conv: 9.999999974752427e-07
                 resid 3.138460043352512e-07 r_conv: 9.999999974752427e-07
                 resid 6.669412423656408e-05 r_conv: 9.999999974752427e-07
                 resid 4.592781465153722e-04 r_conv: 9.999999974752427e-07
                 resid 2.306055125401161e-07 r_conv: 9.999999974752427e-07
                 resid 2.613478449789192e-09 r_conv: 9.999999974752427e-07
                 resid 3.737699961261767e-09 r_conv: 9.999999974752427e-07
                 resid 4.877678207896103e-06 r_conv: 9.999999974752427e-07
                 resid 5.421013335734672e-04 r_conv: 9.999999974752427e-07
                 resid 3.575857619636538e-08 r_conv: 9.999999974752427e-07
                 resid 3.186042724678428e-04 r_conv: 9.999999974752427e-07
                 resid 1.298820845389678e-05 r_conv: 9.999999974752427e-07
                 resid 2.415040416577846e-04 r_conv: 9.999999974752427e-07
                 resid 3.851587738448818e-05 r_conv: 9.999999974752427e-07
                 resid 5.682940933901868e-06 r_conv: 9.999999974752427e-07
                 resid 5.361634116975534e-04 r_conv: 9.999999974752427e-07
                 resid 2.598039207138400e-05 r_conv: 9.999999974752427e-07
                 resid 8.383236176883728e-04 r_conv: 9.999999974752427e-07
                 resid 6.833985490271554e-04 r_conv: 9.999999974752427e-07
                 resid 5.669693521587752e-04 r_conv: 9.999999974752427e-07
                 resid 7.551399808571689e-04 r_conv: 9.999999974752427e-07
                 resid 4.062117163629905e-04 r_conv: 9.999999974752427e-07
                 resid 1.266265377484532e-03 r_conv: 9.999999974752427e-07
                 resid 8.097086711138283e-07 r_conv: 9.999999974752427e-07
                 resid 9.349829461824411e-07 r_conv: 9.999999974752427e-07
                 resid 6.989273303381877e-07 r_conv: 9.999999974752427e-07
                 resid 1.683663412194987e-05 r_conv: 9.999999974752427e-07
                 resid 9.671495359173620e-06 r_conv: 9.999999974752427e-07
                 resid 3.364907013093892e-04 r_conv: 9.999999974752427e-07
                 resid 5.209270126558667e-05 r_conv: 9.999999974752427e-07
                 resid 4.490741328962001e-04 r_conv: 9.999999974752427e-07
                 resid 3.891108819710941e-04 r_conv: 9.999999974752427e-07
                 resid 3.991719433904842e-04 r_conv: 9.999999974752427e-07
                 resid 1.014354542708039e-03 r_conv: 9.999999974752427e-07
                 resid 9.464882307254934e-04 r_conv: 9.999999974752427e-07
                 resid 4.405679375750627e-04 r_conv: 9.999999974752427e-07
                 resid 2.809781472268532e-04 r_conv: 9.999999974752427e-07
                 resid 4.342971996598979e-04 r_conv: 9.999999974752427e-07
                 resid 2.300603690217773e-04 r_conv: 9.999999974752427e-07
                 resid 8.105602799526029e-04 r_conv: 9.999999974752427e-07
                 resid 4.354143382299715e-04 r_conv: 9.999999974752427e-07
                 resid 4.043357794288959e-04 r_conv: 9.999999974752427e-07
                 resid 9.741472653314571e-04 r_conv: 9.999999974752427e-07
                 resid 8.708627200367142e-05 r_conv: 9.999999974752427e-07
                 resid 8.832941573183503e-05 r_conv: 9.999999974752427e-07
                 resid 1.734781425894475e-04 r_conv: 9.999999974752427e-07
                 resid 8.762877167160228e-06 r_conv: 9.999999974752427e-07
                 resid 6.438324505741832e-04 r_conv: 9.999999974752427e-07
                 resid 5.853932802341812e-04 r_conv: 9.999999974752427e-07
                 resid 5.498964412531563e-04 r_conv: 9.999999974752427e-07
                 resid 1.690221025629281e-03 r_conv: 9.999999974752427e-07
                 resid 3.943028701899271e-04 r_conv: 9.999999974752427e-07
                 resid 5.827138021657157e-04 r_conv: 9.999999974752427e-07
                 resid 1.072023126387637e-03 r_conv: 9.999999974752427e-07
                 resid 8.230268830681213e-04 r_conv: 9.999999974752427e-07
                 resid 9.474568243396280e-04 r_conv: 9.999999974752427e-07
[...]
X: ED(  6)  --> EV(  17) excitation amplitude: 0.9773
 
state: 147 excitation energy (eV): 47.1687119201
state: 147 electron oscillator strength: 0.2238698665
state: 147 proton oscillator strength: 0.0000006067
state: 147 total oscillator strength (e+p): 0.2238704732
state: 147 character: 99.9856 % electron, 0.0144 % proton 
X: ED(  4)  --> EV(  14) excitation amplitude: 0.1279
X: ED(  7)  --> EV(  17) excitation amplitude: 0.9773
 
state: 148 excitation energy (eV): 48.7784808833
state: 148 electron oscillator strength: 0.0202771528
state: 148 proton oscillator strength: 0.0000000508
state: 148 total oscillator strength (e+p): 0.0202772036
state: 148 character: 99.9989 % electron, 0.0011 % proton 
X: ED(  3)  --> EV(  12) excitation amplitude: 0.3120
X: ED(  5)  --> EV(  17) excitation amplitude: 0.9233
X: ED(  6)  --> EV(  18) excitation amplitude: 0.1149
X: ED(  7)  --> EV(  19) excitation amplitude: 0.1149
 
state: 149 excitation energy (eV): 52.1498427563
state: 149 electron oscillator strength: 0.1742583214
state: 149 proton oscillator strength: 0.0000000290
state: 149 total oscillator strength (e+p): 0.1742583503
state: 149 character: 99.9994 % electron, 0.0006 % proton 
X: ED(  3)  --> EV(  12) excitation amplitude: 0.8930
X: ED(  4)  --> EV(  17) excitation amplitude: 0.2415
X: ED(  5)  --> EV(  12) excitation amplitude: 0.1050
X: ED(  5)  --> EV(  17) excitation amplitude: 0.2423
 
 -------------------------------------------------
         NEO-TDDFT Excitation Energies
 -------------------------------------------------

 Excited state   1: excitation energy (eV) =    0.3475
 Total energy for state   1:                -93.4064240061 au

 Excited state   2: excitation energy (eV) =    0.3475
 Total energy for state   2:                -93.4064240061 au

 Excited state   3: excitation energy (eV) =    0.5246
 Total energy for state   3:                -93.3999178696 au

 Excited state   4: excitation energy (eV) =    0.7495
 Total energy for state   4:                -93.3916502444 au

 Excited state   5: excitation energy (eV) =    0.9316
 Total energy for state   5:                -93.3849576309 au

 Excited state   6: excitation energy (eV) =    0.9319
 Total energy for state   6:                -93.3849492063 au

 Excited state   7: excitation energy (eV) =    1.1088
 Total energy for state   7:                -93.3784479232 au

 Excited state   8: excitation energy (eV) =    1.1088
 Total energy for state   8:                -93.3784479232 au

 Excited state   9: excitation energy (eV) =    1.1973
 Total energy for state   9:                -93.3751945370 au

 Excited state  10: excitation energy (eV) =    1.2120
 Total energy for state  10:                -93.3746531852 au

 Excited state  11: excitation energy (eV) =    1.2120
 Total energy for state  11:                -93.3746531852 au

 Excited state  12: excitation energy (eV) =    1.4405
 Total energy for state  12:                -93.3662569912 au

 Excited state  13: excitation energy (eV) =    1.7363
 Total energy for state  13:                -93.3553871907 au

 Excited state  14: excitation energy (eV) =    1.7753
 Total energy for state  14:                -93.3539530016 au

 Excited state  15: excitation energy (eV) =    1.7758
 Total energy for state  15:                -93.3539355709 au

 Excited state  16: excitation energy (eV) =    2.0071
 Total energy for state  16:                -93.3454360444 au

 Excited state  17: excitation energy (eV) =    2.0071
 Total energy for state  17:                -93.3454360444 au

 Excited state  18: excitation energy (eV) =    2.1887
 Total energy for state  18:                -93.3387631093 au

 Excited state  19: excitation energy (eV) =    2.3035
 Total energy for state  19:                -93.3345429861 au

 Excited state  20: excitation energy (eV) =    2.3035
 Total energy for state  20:                -93.3345429861 au

 Excited state  21: excitation energy (eV) =    2.6434
 Total energy for state  21:                -93.3220524600 au

 Excited state  22: excitation energy (eV) =    2.7264
 Total energy for state  22:                -93.3190024559 au

 Excited state  23: excitation energy (eV) =    2.7734
 Total energy for state  23:                -93.3172737801 au

 Excited state  24: excitation energy (eV) =    2.7736
 Total energy for state  24:                -93.3172672168 au

 Excited state  25: excitation energy (eV) =    3.0641
 Total energy for state  25:                -93.3065922278 au

 Excited state  26: excitation energy (eV) =    3.0641
 Total energy for state  26:                -93.3065922278 au

 Excited state  27: excitation energy (eV) =    3.3151
 Total energy for state  27:                -93.2973662610 au

 Excited state  28: excitation energy (eV) =    3.3342
 Total energy for state  28:                -93.2966646362 au

 Excited state  29: excitation energy (eV) =    3.3342
 Total energy for state  29:                -93.2966646362 au

 Excited state  30: excitation energy (eV) =    3.7624
 Total energy for state  30:                -93.2809300310 au

 Excited state  31: excitation energy (eV) =    3.7736
 Total energy for state  31:                -93.2805173728 au

 Excited state  32: excitation energy (eV) =    3.7755
 Total energy for state  32:                -93.2804481685 au

 Excited state  33: excitation energy (eV) =    3.8495
 Total energy for state  33:                -93.2777289239 au

 Excited state  34: excitation energy (eV) =    4.1527
 Total energy for state  34:                -93.2665870642 au

 Excited state  35: excitation energy (eV) =    4.1527
 Total energy for state  35:                -93.2665870642 au

 Excited state  36: excitation energy (eV) =    4.4549
 Total energy for state  36:                -93.2554794927 au

 Excited state  37: excitation energy (eV) =    4.4878
 Total energy for state  37:                -93.2542703515 au

 Excited state  38: excitation energy (eV) =    4.4878
 Total energy for state  38:                -93.2542703515 au

 Excited state  39: excitation energy (eV) =    4.7417
 Total energy for state  39:                -93.2449405753 au

 Excited state  40: excitation energy (eV) =    4.8271
 Total energy for state  40:                -93.2418024998 au

 Excited state  41: excitation energy (eV) =    4.8279
 Total energy for state  41:                -93.2417716617 au

 Excited state  42: excitation energy (eV) =    5.0859
 Total energy for state  42:                -93.2322908245 au

 Excited state  43: excitation energy (eV) =    5.1122
 Total energy for state  43:                -93.2313253522 au

 Excited state  44: excitation energy (eV) =    5.1122
 Total energy for state  44:                -93.2313253521 au

 Excited state  45: excitation energy (eV) =    5.5729
 Total energy for state  45:                -93.2143950266 au

 Excited state  46: excitation energy (eV) =    5.5729
 Total energy for state  46:                -93.2143950266 au

 Excited state  47: excitation energy (eV) =    5.6501
 Total energy for state  47:                -93.2115559646 au

 Excited state  48: excitation energy (eV) =    5.7881
 Total energy for state  48:                -93.2064868616 au

 Excited state  49: excitation energy (eV) =    5.7934
 Total energy for state  49:                -93.2062915390 au

 Excited state  50: excitation energy (eV) =    6.2160
 Total energy for state  50:                -93.1907625922 au

 Excited state  51: excitation energy (eV) =    6.6411
 Total energy for state  51:                -93.1751389477 au

 Excited state  52: excitation energy (eV) =    6.6411
 Total energy for state  52:                -93.1751389476 au

 Excited state  53: excitation energy (eV) =    6.8390
 Total energy for state  53:                -93.1678676464 au

 Excited state  54: excitation energy (eV) =    7.4524
 Total energy for state  54:                -93.1453236241 au

 Excited state  55: excitation energy (eV) =    7.4524
 Total energy for state  55:                -93.1453236240 au

 Excited state  56: excitation energy (eV) =    7.5104
 Total energy for state  56:                -93.1431940850 au

 Excited state  57: excitation energy (eV) =    7.5165
 Total energy for state  57:                -93.1429674130 au

 Excited state  58: excitation energy (eV) =    7.6397
 Total energy for state  58:                -93.1384413592 au

 Excited state  59: excitation energy (eV) =    7.8856
 Total energy for state  59:                -93.1294029795 au

 Excited state  60: excitation energy (eV) =    8.2214
 Total energy for state  60:                -93.1170628164 au

 Excited state  61: excitation energy (eV) =    8.2214
 Total energy for state  61:                -93.1170627721 au

 Excited state  62: excitation energy (eV) =    8.4637
 Total energy for state  62:                -93.1081585307 au

 Excited state  63: excitation energy (eV) =    8.7891
 Total energy for state  63:                -93.0962029554 au

 Excited state  64: excitation energy (eV) =    8.7891
 Total energy for state  64:                -93.0962029553 au

 Excited state  65: excitation energy (eV) =    9.3658
 Total energy for state  65:                -93.0750066900 au

 Excited state  66: excitation energy (eV) =    9.3658
 Total energy for state  66:                -93.0750066900 au

 Excited state  67: excitation energy (eV) =    9.4839
 Total energy for state  67:                -93.0706686926 au

 Excited state  68: excitation energy (eV) =    9.7999
 Total energy for state  68:                -93.0590539664 au

 Excited state  69: excitation energy (eV) =    9.8030
 Total energy for state  69:                -93.0589418807 au

 Excited state  70: excitation energy (eV) =    9.9220
 Total energy for state  70:                -93.0545684144 au

 Excited state  71: excitation energy (eV) =    9.9220
 Total energy for state  71:                -93.0545684144 au

 Excited state  72: excitation energy (eV) =   10.5045
 Total energy for state  72:                -93.0331608175 au

 Excited state  73: excitation energy (eV) =   10.5045
 Total energy for state  73:                -93.0331608174 au

 Excited state  74: excitation energy (eV) =   10.6130
 Total energy for state  74:                -93.0291735746 au

 Excited state  75: excitation energy (eV) =   11.4393
 Total energy for state  75:                -92.9988074849 au

 Excited state  76: excitation energy (eV) =   13.3345
 Total energy for state  76:                -92.9291620649 au

 Excited state  77: excitation energy (eV) =   14.0207
 Total energy for state  77:                -92.9039428050 au

 Excited state  78: excitation energy (eV) =   14.0207
 Total energy for state  78:                -92.9039428050 au

 Excited state  79: excitation energy (eV) =   14.5482
 Total energy for state  79:                -92.8845590889 au

 Excited state  80: excitation energy (eV) =   14.5482
 Total energy for state  80:                -92.8845590889 au

 Excited state  81: excitation energy (eV) =   14.6403
 Total energy for state  81:                -92.8811731386 au

 Excited state  82: excitation energy (eV) =   15.8692
 Total energy for state  82:                -92.8360131715 au

 Excited state  83: excitation energy (eV) =   15.8692
 Total energy for state  83:                -92.8360131715 au

 Excited state  84: excitation energy (eV) =   16.8759
 Total energy for state  84:                -92.7990154877 au

 Excited state  85: excitation energy (eV) =   18.0419
 Total energy for state  85:                -92.7561657675 au

 Excited state  86: excitation energy (eV) =   20.1942
 Total energy for state  86:                -92.6770728928 au

 Excited state  87: excitation energy (eV) =   20.1942
 Total energy for state  87:                -92.6770728653 au

 Excited state  88: excitation energy (eV) =   20.3219
 Total energy for state  88:                -92.6723771246 au

 Excited state  89: excitation energy (eV) =   21.3028
 Total energy for state  89:                -92.6363307129 au

 Excited state  90: excitation energy (eV) =   21.3623
 Total energy for state  90:                -92.6341449899 au

 Excited state  91: excitation energy (eV) =   21.3623
 Total energy for state  91:                -92.6341449899 au

 Excited state  92: excitation energy (eV) =   23.2221
 Total energy for state  92:                -92.5658000269 au

 Excited state  93: excitation energy (eV) =   23.3573
 Total energy for state  93:                -92.5608312702 au

 Excited state  94: excitation energy (eV) =   23.3573
 Total energy for state  94:                -92.5608312702 au

 Excited state  95: excitation energy (eV) =   23.8765
 Total energy for state  95:                -92.5417498718 au

 Excited state  96: excitation energy (eV) =   23.8765
 Total energy for state  96:                -92.5417498718 au

 Excited state  97: excitation energy (eV) =   25.1336
 Total energy for state  97:                -92.4955536357 au

 Excited state  98: excitation energy (eV) =   25.4484
 Total energy for state  98:                -92.4839841513 au

 Excited state  99: excitation energy (eV) =   26.2348
 Total energy for state  99:                -92.4550841200 au

 Excited state 100: excitation energy (eV) =   26.2348
 Total energy for state 100:                -92.4550841200 au

 Excited state 101: excitation energy (eV) =   26.7047
 Total energy for state 101:                -92.4378154477 au

 Excited state 102: excitation energy (eV) =   26.7047
 Total energy for state 102:                -92.4378154477 au

 Excited state 103: excitation energy (eV) =   28.1116
 Total energy for state 103:                -92.3861141268 au

 Excited state 104: excitation energy (eV) =   28.2159
 Total energy for state 104:                -92.3822789912 au

 Excited state 105: excitation energy (eV) =   28.2159
 Total energy for state 105:                -92.3822789912 au

 Excited state 106: excitation energy (eV) =   28.9272
 Total energy for state 106:                -92.3561405714 au

 Excited state 107: excitation energy (eV) =   28.9272
 Total energy for state 107:                -92.3561405491 au

 Excited state 108: excitation energy (eV) =   28.9777
 Total energy for state 108:                -92.3542846957 au

 Excited state 109: excitation energy (eV) =   29.0610
 Total energy for state 109:                -92.3512223008 au

 Excited state 110: excitation energy (eV) =   29.1700
 Total energy for state 110:                -92.3472167814 au

 Excited state 111: excitation energy (eV) =   29.3992
 Total energy for state 111:                -92.3387951486 au

 Excited state 112: excitation energy (eV) =   29.3992
 Total energy for state 112:                -92.3387951486 au

 Excited state 113: excitation energy (eV) =   30.4128
 Total energy for state 113:                -92.3015461575 au

 Excited state 114: excitation energy (eV) =   31.0359
 Total energy for state 114:                -92.2786471338 au

 Excited state 115: excitation energy (eV) =   33.1329
 Total energy for state 115:                -92.2015819601 au

 Excited state 116: excitation energy (eV) =   33.2027
 Total energy for state 116:                -92.1990191334 au

 Excited state 117: excitation energy (eV) =   34.6840
 Total energy for state 117:                -92.1445810984 au

 Excited state 118: excitation energy (eV) =   34.6840
 Total energy for state 118:                -92.1445810984 au

 Excited state 119: excitation energy (eV) =   35.6931
 Total energy for state 119:                -92.1074962109 au

 Excited state 120: excitation energy (eV) =   35.6931
 Total energy for state 120:                -92.1074962109 au

 Excited state 121: excitation energy (eV) =   36.0710
 Total energy for state 121:                -92.0936101771 au

 Excited state 122: excitation energy (eV) =   36.2272
 Total energy for state 122:                -92.0878679800 au

 Excited state 123: excitation energy (eV) =   36.2272
 Total energy for state 123:                -92.0878679800 au

 Excited state 124: excitation energy (eV) =   37.0032
 Total energy for state 124:                -92.0593504455 au

 Excited state 125: excitation energy (eV) =   37.0032
 Total energy for state 125:                -92.0593503932 au

 Excited state 126: excitation energy (eV) =   37.0681
 Total energy for state 126:                -92.0569657650 au

 Excited state 127: excitation energy (eV) =   37.0869
 Total energy for state 127:                -92.0562756991 au

 Excited state 128: excitation energy (eV) =   37.0869
 Total energy for state 128:                -92.0562756991 au

 Excited state 129: excitation energy (eV) =   37.3680
 Total energy for state 129:                -92.0459471304 au

 Excited state 130: excitation energy (eV) =   37.9692
 Total energy for state 130:                -92.0238539492 au

 Excited state 131: excitation energy (eV) =   37.9692
 Total energy for state 131:                -92.0238539492 au

 Excited state 132: excitation energy (eV) =   38.3354
 Total energy for state 132:                -92.0103959178 au

 Excited state 133: excitation energy (eV) =   38.3354
 Total energy for state 133:                -92.0103957698 au

 Excited state 134: excitation energy (eV) =   38.8478
 Total energy for state 134:                -91.9915633025 au

 Excited state 135: excitation energy (eV) =   39.1443
 Total energy for state 135:                -91.9806694917 au

 Excited state 136: excitation energy (eV) =   40.6728
 Total energy for state 136:                -91.9244977772 au

 Excited state 137: excitation energy (eV) =   40.6728
 Total energy for state 137:                -91.9244977772 au

 Excited state 138: excitation energy (eV) =   41.6362
 Total energy for state 138:                -91.8890920452 au

 Excited state 139: excitation energy (eV) =   42.2807
 Total energy for state 139:                -91.8654062534 au

 Excited state 140: excitation energy (eV) =   43.8595
 Total energy for state 140:                -91.8073895683 au

 Excited state 141: excitation energy (eV) =   43.8595
 Total energy for state 141:                -91.8073894533 au

 Excited state 142: excitation energy (eV) =   43.8990
 Total energy for state 142:                -91.8059356014 au

 Excited state 143: excitation energy (eV) =   44.4699
 Total energy for state 143:                -91.7849562686 au

 Excited state 144: excitation energy (eV) =   44.4699
 Total energy for state 144:                -91.7849562686 au

 Excited state 145: excitation energy (eV) =   44.8874
 Total energy for state 145:                -91.7696115079 au

 Excited state 146: excitation energy (eV) =   44.8874
 Total energy for state 146:                -91.7696115079 au

 Excited state 147: excitation energy (eV) =   47.1687
 Total energy for state 147:                -91.6857774735 au

 Excited state 148: excitation energy (eV) =   47.1687
 Total energy for state 148:                -91.6857774735 au

 Excited state 149: excitation energy (eV) =   48.7785
 Total energy for state 149:                -91.6266195852 au

 Excited state 150: excitation energy (eV) =   52.1498
 Total energy for state 150:                -91.5027243841 au

NEO-TDDFT time:      CPU 390.30s  wall 69.88s 
Archival summary:
1\1\c38n02.grace.hpc.yale.internal\SP\ProcedureUnspecified\BasisUnspecified\111\zt85\WedOct2010:33:022021WedOct2010:33:022021\0\\#,ProcedureUnspecified,BasisUnspecified,\\0,1\C\H,1,1.0702\N,1,1.15824,2,180\\\@

 Total job time:  348.60s(wall), 1527.83s(cpu) 
 Wed Oct 20 10:33:02 2021

        *************************************************************
        *                                                           *
        *  Thank you very much for using Q-Chem.  Have a nice day.  *
        *                                                           *
        *************************************************************


