                  Welcome to Q-Chem
     A Quantum Leap Into The Future Of Chemistry


 Q-Chem 5.4 (devel), Q-Chem, Inc., Pleasanton, CA (2021)

 E. Epifanovsky,  A. T. B. Gilbert,  Xintian Feng,  Joonho Lee,  Yuezhi Mao,  
 N. Mardirossian,  P. Pokhilko,  A. White,  M. Wormit,  M. P. Coons,  
 A. L. Dempwolff,  Zhengting Gan,  D. Hait,  P. R. Horn,  L. D. Jacobson,  
 I. Kaliman,  J. Kussmann,  A. W. Lange,  Ka Un Lao,  D. S. Levine,  Jie Liu,  
 S. C. McKenzie,  A. F. Morrison,  K. Nanda,  F. Plasser,  D. R. Rehn,  
 M. L. Vidal,  Zhi-Qiang You,  Ying Zhu,  B. Alam,  B. Albrecht,  
 A. Aldossary,  E. Alguire,  J. H. Andersen,  D. Barton,  K. Begam,  A. Behn,  
 Y. A. Bernard,  E. J. Berquist,  H. Burton,  A. Carreras,  K. Carter-Fenk,  
 R. Chakraborty,  A. D. Chien,  K. D. Closser,  V. Cofer-Shabica,  
 S. Dasgupta,  Jia Deng,  M. de Wergifosse,  M. Diedenhofen,  Hainam Do,  
 S. Ehlert,  Po-Tung Fang,  S. Fatehi,  Qingguo Feng,  T. Friedhoff,  
 J. Gayvert,  Qinghui Ge,  G. Gidofalvi,  M. Goldey,  J. Gomes,  
 C. Gonzalez-Espinoza,  S. Gulania,  A. Gunina,  M. W. D. Hanson-Heine,  
 P. H. P. Harbach,  A. W. Hauser,  M. F. Herbst,  M. Hernandez Vera,  
 M. Hodecker,  Z. C. Holden,  S. Houck,  Xunkun Huang,  Kerwin Hui,  
 B. C. Huynh,  M. Ivanov,  Hyunjun Ji,  Hanjie Jiang,  B. Kaduk,  S. Kaehler,  
 K. Khistyaev,  Jaehoon Kim,  P. Klunzinger,  Z. Koczor-Benda,  
 Joong Hoon Koh,  D. Kosenkov,  L. Koulias,  T. Kowalczyk,  C. M. Krauter,  
 K. Kue,  A. Kunitsa,  T. Kus,  A. Landau,  K. V. Lawler,  D. Lefrancois,  
 S. Lehtola,  Rain Li,  Yi-Pei Li,  Jiashu Liang,  M. Liebenthal,  
 Hung-Hsuan Lin,  You-Sheng Lin,  Fenglai Liu,  Kuan-Yu Liu,  
 M. Loipersberger,  A. Luenser,  A. Manjanath,  P. Manohar,  E. Mansoor,  
 S. F. Manzer,  Shan-Ping Mao,  A. V. Marenich,  T. Markovich,  S. Mason,  
 S. A. Maurer,  P. F. McLaughlin,  M. F. S. J. Menger,  J.-M. Mewes,  
 S. A. Mewes,  P. Morgante,  J. W. Mullinax,  K. J. Oosterbaan,  G. Paran,  
 Alexander C. Paul,  Suranjan K. Paul,  F. Pavosevic,  Zheng Pei,  S. Prager,  
 E. I. Proynov,  E. Ramos,  B. Rana,  A. E. Rask,  A. Rettig,  R. M. Richard,  
 F. Rob,  E. Rossomme,  T. Scheele,  M. Scheurer,  M. Schneider,  
 N. Sergueev,  S. M. Sharada,  W. Skomorowski,  D. W. Small,  C. J. Stein,  
 Yu-Chuan Su,  E. J. Sundstrom,  Zhen Tao,  J. Thirman,  T. Tsuchimochi,  
 N. M. Tubman,  S. P. Veccham,  O. Vydrov,  J. Wenzel,  J. Witte,  A. Yamada,  
 Kun Yao,  S. Yeganeh,  S. R. Yost,  A. Zech,  Igor Ying Zhang,  Xing Zhang,  
 Yu Zhang,  D. Zuev,  A. Aspuru-Guzik,  A. T. Bell,  N. A. Besley,  
 K. B. Bravaya,  B. R. Brooks,  D. Casanova,  Jeng-Da Chai,  S. Coriani,  
 C. J. Cramer,  A. E. DePrince, III,  R. A. DiStasio Jr.,  A. Dreuw,  
 B. D. Dunietz,  T. R. Furlani,  W. A. Goddard III,  S. Grimme,  
 S. Hammes-Schiffer,  T. Head-Gordon,  W. J. Hehre,  Chao-Ping Hsu,  
 T.-C. Jagau,  Yousung Jung,  A. Klamt,  Jing Kong,  D. S. Lambrecht,  
 WanZhen Liang,  N. J. Mayhall,  C. W. McCurdy,  J. B. Neaton,  
 C. Ochsenfeld,  J. A. Parkhill,  R. Peverati,  V. A. Rassolov,  Yihan Shao,  
 L. V. Slipchenko,  T. Stauch,  R. P. Steele,  J. E. Subotnik,  
 A. J. W. Thom,  A. Tkatchenko,  D. G. Truhlar,  T. Van Voorhis,  
 T. A. Wesolowski,  K. B. Whaley,  H. L. Woodcock III,  P. M. Zimmerman,  
 S. Faraji,  P. M. W. Gill,  M. Head-Gordon,  J. M. Herbert,  A. I. Krylov

 Additional authors for Version 5.4.1: 
 S. Kotaru,  Shaozhi Li,  Xiangyuan Li,  F. Matz,  A. Molle,  Haisheng Ren,  
 Yingli Su,  Hung-Yi Tsai,  C. Utku,  Fang Wang

 Contributors to earlier versions of Q-Chem not listed above: 
 R. D. Adamson,  B. Austin,  R. Baer,  J. Baker,  G. J. O. Beran,  
 K. Brandhorst,  S. T. Brown,  E. F. C. Byrd,  A. K. Chakraborty,  
 G. K. L. Chan,  Chun-Min Chang,  Yunqing Chen,  C.-L. Cheng,  
 Siu Hung Chien,  D. M. Chipman,  D. L. Crittenden,  H. Dachsel,  
 R. J. Doerksen,  A. D. Dutoi,  R. G. Edgar,  J. Fosso-Tande,  
 L. Fusti-Molnar,  D. Ghosh,  A. Ghysels,  A. Golubeva-Zadorozhnaya,  
 J. Gonthier,  M. S. Gordon,  S. R. Gwaltney,  G. Hawkins,  J. E. Herr,  
 A. Heyden,  S. Hirata,  E. G. Hohenstein,  G. Kedziora,  F. J. Keil,  
 C. Kelley,  Jihan Kim,  R. A. King,  R. Z. Khaliullin,  P. P. Korambath,  
 W. Kurlancheek,  A. Laurent,  A. M. Lee,  M. S. Lee,  S. V. Levchenko,  
 Ching Yeh Lin,  D. Liotard,  E. Livshits,  R. C. Lochan,  I. Lotan,  
 L. A. Martinez-Martinez,  P. E. Maslen,  N. Nair,  D. P. O'Neill,  
 D. Neuhauser,  E. Neuscamman,  C. M. Oana,  R. Olivares-Amaya,  R. Olson,  
 T. M. Perrine,  B. Peters,  P. A. Pieniazek,  A. Prociuk,  Y. M. Rhee,  
 J. Ritchie,  M. A. Rohrdanz,  E. Rosta,  N. J. Russ,  H. F. Schaefer III,  
 M. W. Schmidt,  N. E. Schultz,  S. Sharma,  N. Shenvi,  C. D. Sherrill,  
 A. C. Simmonett,  A. Sodt,  T. Stein,  D. Stuck,  K. S. Thanthiriwatte,  
 V. Vanovschi,  L. Vogt,  Tao Wang,  A. Warshel,  M. A. Watson,  
 C. F. Williams,  Q. Wu,  X. Xu,  Jun Yang,  W. Zhang,  Yan Zhao

 Please cite Q-Chem as follows:
 Y. Shao et al., Mol. Phys. 113, 184-215 (2015)
 DOI: 10.1080/00268976.2014.952696

 Q-Chem 5.4.1 for Intel X86 EM64T Linux

 Parts of Q-Chem use Armadillo 9.900.5 (Nocturnal Misbehaviour).
 http://arma.sourceforge.net/

 Q-Chem begins on Mon Aug 21 15:39:53 2023  

 Host: r916u01n04.grace.ycrc.yale.edu
0

     Scratch files written to /home/tl686/palmer_scratch/qchem_dev/scratch/qchem772427//
 Processing $rem in /home/tl686/qchem_dev/qchem/config/preferences:
 Processing $rem in /home/tl686/.qchemrc:

 Checking the input file for inconsistencies... 	...done.

--------------------------------------------------------------
User input:
--------------------------------------------------------------
$molecule
+1 1
H      0.000000    0.000000    3.722
Au     0.000000    0.000000    2.222000
Au    -1.392000    0.000000    0.000000
Au     1.393000    0.000000    0.000000
Au     0.000000    0.000000   -2.411000
Au     2.626000    0.000000   -2.315000
Au    -2.614000    0.000000   -2.320000
Au     0.000000    0.000000    5.2219999999999995
Au    -1.392000    0.000000    7.443999999999999
Au     1.393000    0.000000    7.443999999999999
Au     0.000000    0.000000    9.855
Au     2.626000    0.000000    9.759
Au    -2.614000    0.000000    9.764
$end
$rem
jobtype = sp
sym_ignore = false
input_bohr = false
method = b3lyp
SCF_ALGORITHM = GDM
MAX_SCF_CYCLES=500
SCF_CONVERGENCE = 8
MEM_TOTAL = 100000 
ECP = fit-LANL2DZ
basis = general
IANLTY     200
ESP_GRID     -1
$end


$basis
   H 0
   def2-qzvp
   ****
   Au 0
   LANL2DZ
   ****
$end

$plots
   plot the electrostatic potential on a line
   14001   -7.0   7.0
   1   0.0   0.0
   1   0.0   0.0
   0  0  0  0
   0
$end
--------------------------------------------------------------
 ----------------------------------------------------------------
             Standard Nuclear Orientation (Angstroms)
    I     Atom           X                Y                Z
 ----------------------------------------------------------------
    1      H       0.0000000000     0.0000000000     0.0021643836
    2      Au     -1.5000000000    -0.0000000000     0.0021643836
    3      Au     -3.7220000000    -0.0000000000     1.3941643836
    4      Au     -3.7220000000    -0.0000000000    -1.3908356164
    5      Au     -6.1330000000    -0.0000000000     0.0021643836
    6      Au     -6.0370000000    -0.0000000000    -2.6238356164
    7      Au     -6.0420000000    -0.0000000000     2.6161643836
    8      Au      1.5000000000     0.0000000000     0.0021643836
    9      Au      3.7220000000     0.0000000000     1.3941643836
   10      Au      3.7220000000     0.0000000000    -1.3908356164
   11      Au      6.1330000000     0.0000000000     0.0021643836
   12      Au      6.0370000000     0.0000000000    -2.6238356164
   13      Au      6.0420000000     0.0000000000     2.6161643836
 ----------------------------------------------------------------
 Molecular Point Group                 C2v   NOp =  4
 Largest Abelian Subgroup              C2v   NOp =  4
 Nuclear Repulsion Energy =        2599.56058843 hartrees
 There are      114 alpha and      114 beta electrons
 Requested basis set is non-standard
 There are 106 shells and 294 basis functions

 Total QAlloc Memory Limit 100000 MB
 Mega-Array Size       188 MB
 MEM_STATIC part       192 MB

                       Distance Matrix (Angstroms)
             H (  1)   Au(  2)   Au(  3)   Au(  4)   Au(  5)   Au(  6)
   Au(  2)  1.500000
   Au(  3)  3.973783  2.622012
   Au(  4)  3.974133  2.622543  2.785000
   Au(  5)  6.133000  4.633000  2.783987  2.784487
   Au(  6)  6.583407  5.242160  4.637192  2.622883  2.627754
   Au(  7)  6.583218  5.240492  2.622153  4.630167  2.615583  5.240002
   Au(  8)  1.500000  3.000000  5.404345  5.404603  7.633000  7.981369
   Au(  9)  3.973783  5.404345  7.444000  7.947916  9.952823 10.553786
   Au( 10)  3.974133  5.404603  7.947916  7.444000  9.952963  9.836583
   Au( 11)  6.133000  7.633000  9.952823  9.952963 12.266000 12.450091
   Au( 12)  6.583407  7.981369 10.553786  9.836583 12.450091 12.074000
   Au( 13)  6.583218  7.982153  9.840172 10.554229 12.452454 13.166618
             Au(  7)   Au(  8)   Au(  9)   Au( 10)   Au( 11)   Au( 12)
   Au(  8)  7.982153
   Au(  9)  9.840172  2.622012
   Au( 10) 10.554229  2.622543  2.785000
   Au( 11) 12.452454  4.633000  2.783987  2.784487
   Au( 12) 13.166618  5.242160  4.637192  2.622883  2.627754
   Au( 13) 12.084000  5.240492  2.622153  4.630167  2.615583  5.240002


 A cutoff of  1.0D-12 yielded   4415 shell pairs
 There are     33535 function pairs (     40152 Cartesian)
 Requested basis set is non-standard
 Compound shells will be simplified
 There are 106 shells and 294 basis functions
 A cutoff of  1.0D-12 yielded   4415 shell pairs
 There are     33535 function pairs (     40152 Cartesian)
 Smallest overlap matrix eigenvalue = 4.54E-04

 Scale SEOQF with 1.000000e-02/1.000000e-01/1.000000e-01

 Standard Electronic Orientation quadrupole field applied
 Nucleus-field energy     =    -0.0000000526 hartrees
 ================ Generating on-the-fly SAD Guess ================
Attempting to make child job directory: /home/tl686/palmer_scratch/qchem_dev/scratch/qchem772427//Frg1/
Attempting to make child job directory: /home/tl686/palmer_scratch/qchem_dev/scratch/qchem772427//Frg2/
Creating input file /home/tl686/palmer_scratch/qchem_dev/scratch/qchem772427/Frg1.input
using default PutDataFrgm: nothing
calling putenv with: QCSCRATCH=/home/tl686/palmer_scratch/qchem_dev/scratch/qchem772427/ 
Spawning Job For Fragment 0
Done Job For Fragment 0
calling putenv with: QCSCRATCH=/home/tl686/palmer_scratch/qchem_dev/scratch 
calling putenv with: QCTHREADS=32 
Creating input file /home/tl686/palmer_scratch/qchem_dev/scratch/qchem772427/Frg2.input
using default PutDataFrgm: nothing
calling putenv with: QCSCRATCH=/home/tl686/palmer_scratch/qchem_dev/scratch/qchem772427/ 
Spawning Job For Fragment 1
Done Job For Fragment 1
calling putenv with: QCSCRATCH=/home/tl686/palmer_scratch/qchem_dev/scratch 
calling putenv with: QCTHREADS=32 
 Time for running child jobs:  CPU 0.00 s  wall 2.83 s
 ============= Method Specific SAD Guess Constructed =============
 Guess from on-the-fly superposition of atomic densities
 Warning: Energy on first SCF cycle will be non-variational

 -----------------------------------------------------------------------
  General SCF calculation program by
  Eric Jon Sundstrom, Paul Horn, Yuezhi Mao, Dmitri Zuev, Alec White,
  David Stuck, Shaama M.S., Shane Yost, Joonho Lee, David Small,
  Daniel Levine, Susi Lehtola, Hugh Burton, Evgeny Epifanovsky,
  Bang C. Huynh
 -----------------------------------------------------------------------
 Exchange:     0.2000 Hartree-Fock + 0.0800 Slater + 0.7200 B88
 Correlation:  0.1900 VWN1RPA + 0.8100 LYP
 Using SG-1 standard quadrature grid
 using 32 threads for integral computing
 -------------------------------------------------------
 OpenMP Integral computing Module                
 Release: version 1.0, May 2013, Q-Chem Inc. Pittsburgh 
 -------------------------------------------------------
 A restricted SCF calculation will be
 performed using Roothaan-Hall, GDM
 SCF converges when RMS gradient is below 1.0e-08
 ---------------------------------------
  Cycle       Energy         DIIS error
 ---------------------------------------
    1   -1628.3542927348      1.75e-02  Roothaan Step
 ---------------------------------------
  Cycle       Energy        RMS Gradient
 ---------------------------------------
    1   -1626.1969586720      6.02e-02   Descent step
    2   -1626.1671228290      1.32e-01  Line search: overstep
    3   -1626.2445781384      1.72e-02   Normal BFGS step
    4   -1626.2425406250      4.54e-02  Line search: overstep
    5   -1626.2474123258      9.62e-03   Normal BFGS step
    6   -1626.2480579208      8.30e-03   Normal BFGS step
    7   -1626.2482238140      6.12e-03   Normal BFGS step
    8   -1626.2483473731      1.16e-03   Normal BFGS step
    9   -1626.2483858101      5.91e-04   Normal BFGS step
   10   -1626.2483905342      4.24e-04   Normal BFGS step
   11   -1626.2483906399      3.43e-04   Normal BFGS step
   12   -1626.2483917579      3.30e-05   Normal BFGS step
   13   -1626.2483917651      5.59e-05   Normal BFGS step
   14   -1626.2483917763      2.63e-05   Normal BFGS step
   15   -1626.2483917823      8.03e-06   Normal BFGS step
   16   -1626.2483917832      2.29e-06   Normal BFGS step
   17   -1626.2483917833      9.98e-07   Normal BFGS step
   18   -1626.2483917832      2.34e-07   Normal BFGS step
   19   -1626.2483917832      7.54e-08   Normal BFGS step
  GDM::WARNING energy changes are now smaller than effective accuracy.
  GDM::        calculation will continue, but THRESH should be increased
  GDM::        or SCF_CONVERGENCE decreased. 
  GDM::        effective_thresh = 2.05e-09
   20   -1626.2483917830      3.77e-08   Normal BFGS step
  GDM::WARNING energy changes are now smaller than effective accuracy.
  GDM::        calculation will continue, but THRESH should be increased
  GDM::        or SCF_CONVERGENCE decreased. 
  GDM::        effective_thresh = 2.05e-09
   21   -1626.2483917827      3.79e-08   Normal BFGS step
  GDM::WARNING energy changes are now smaller than effective accuracy.
  GDM::        calculation will continue, but THRESH should be increased
  GDM::        or SCF_CONVERGENCE decreased. 
  GDM::        effective_thresh = 2.05e-09
   22   -1626.2483917826      1.05e-08   Normal BFGS step
   23   -1626.2483917836      1.28e-08   Normal BFGS step
  GDM::WARNING energy changes are now smaller than effective accuracy.
  GDM::        calculation will continue, but THRESH should be increased
  GDM::        or SCF_CONVERGENCE decreased. 
  GDM::        effective_thresh = 2.05e-09
   24   -1626.2483917824      7.99e-09  Convergence criterion met
 ---------------------------------------
 SCF time:   CPU 242.36s  wall 10.00s 
 SCF   energy in the final basis set =    -1626.2483917824
 Total energy in the final basis set =    -1626.2483917824

 --------------------------------------------------------------
             Orbital Energies (a.u.) and Symmetries
 --------------------------------------------------------------

 Alpha MOs, Restricted
 -- Occupied --                  
 -4.321  -4.321  -4.295  -4.295  -4.295  -4.295  -4.295  -4.295
  1 B1    1 A1    2 A1    2 B1    3 B1    3 A1    4 B1    4 A1                 
 -4.278  -4.278  -4.277  -4.277  -2.472  -2.469  -2.449  -2.449
  5 B1    5 A1    6 A1    6 B1    7 A1    7 B1    8 A1    8 B1                 
 -2.440  -2.440  -2.437  -2.437  -2.437  -2.437  -2.434  -2.434
  1 B2    1 A2    9 A1    9 B1   10 A1   10 B1   11 A1   11 B1                 
 -2.431  -2.431  -2.426  -2.426  -2.426  -2.426  -2.419  -2.419
 12 B1   12 A1   13 B1   13 A1   14 B1   14 A1    2 A2    2 B2                 
 -2.419  -2.419  -2.418  -2.418  -2.417  -2.417  -2.415  -2.415
  3 A2    3 B2    4 B2    4 A2   15 B1   15 A1   16 B1   16 A1                 
 -2.411  -2.411  -2.410  -2.410  -2.403  -2.403  -2.403  -2.403
 17 B1   17 A1   18 B1   18 A1    5 B2    5 A2    6 B2    6 A2                 
 -0.681  -0.549  -0.541  -0.536  -0.535  -0.532  -0.511  -0.506
 19 A1   19 B1   20 A1   21 A1   20 B1   21 B1   22 A1   22 B1                 
 -0.506  -0.502  -0.500  -0.493  -0.491  -0.490  -0.489  -0.480
 23 A1    7 B2   24 A1   23 B1   24 B1    7 A2   25 A1    8 B2                 
 -0.480  -0.467  -0.467  -0.464  -0.461  -0.459  -0.457  -0.452
  8 A2    9 B2    9 A2   26 A1   10 B2   10 A2   25 B1   11 B2                 
 -0.451  -0.449  -0.445  -0.441  -0.439  -0.438  -0.435  -0.433
 27 A1   26 B1   27 B1   11 A2   12 B2   12 A2   28 A1   28 B1                 
 -0.429  -0.428  -0.428  -0.427  -0.427  -0.424  -0.424  -0.424
 29 A1   30 A1   29 B1   13 B2   13 A2   31 A1   30 B1   31 B1                 
 -0.419  -0.419  -0.415  -0.415  -0.415  -0.413  -0.410  -0.408
 14 B2   14 A2   15 B2   15 A2   32 A1   32 B1   33 A1   34 A1                 
 -0.408  -0.408  -0.407  -0.404  -0.403  -0.401  -0.401  -0.401
 33 B1   34 B1   16 B2   35 A1   16 A2   36 A1   17 B2   17 A2                 
 -0.400  -0.396  -0.396  -0.391  -0.390  -0.389  -0.387  -0.362
 35 B1   18 A2   18 B2   37 A1   36 B1   37 B1   38 A1   39 A1                 
 -0.362  -0.354
 38 B1   39 B1                                                                 
 -- Virtual --                   
 -0.301  -0.231  -0.219  -0.219  -0.218  -0.195  -0.172  -0.162
 40 A1   41 A1   40 B1   42 A1   41 B1   42 B1   19 B2   19 A2                 
 -0.155  -0.133  -0.122  -0.120  -0.104  -0.103  -0.102  -0.102
 43 A1   44 A1   20 B2   43 B1   45 A1   21 B2   20 A2   46 A1                 
 -0.100  -0.092  -0.084  -0.065  -0.044  -0.042  -0.038  -0.038
 44 B1   21 A2   45 B1   46 B1   22 B2   47 A1   48 A1   23 B2                 
 -0.037  -0.032  -0.032  -0.029  -0.027  -0.026  -0.024  -0.016
 47 B1   22 A2   24 B2   23 A2   49 A1   50 A1   48 B1   49 B1                 
 -0.015  -0.012  -0.004  -0.001   0.001   0.006   0.009   0.013
 51 A1   50 B1   24 A2   51 B1   25 B2   52 A1   53 A1   52 B1                 
  0.013   0.015   0.021   0.022   0.024   0.032   0.033   0.036
 53 B1   25 A2   54 A1   55 A1   54 B1   56 A1   26 B2   27 B2                 
  0.036   0.040   0.042   0.050   0.058   0.065   0.075   0.082
 55 B1   56 B1   26 A2   57 A1   27 A2   57 B1   28 B2   29 B2                 
  0.083   0.086   0.089   0.090   0.091   0.101   0.107   0.113
 28 A2   30 B2   58 A1   59 A1   29 A2   60 A1   58 B1   59 B1                 
  0.114   0.123   0.124   0.136   0.154   0.159   0.161   0.167
 30 A2   61 A1   62 A1   60 B1   61 B1   63 A1   64 A1   62 B1                 
  0.203   0.221   0.240   0.240   0.248   0.257   0.265   0.265
 63 B1   65 A1   66 A1   31 B2   32 B2   67 A1   33 B2   31 A2                 
  0.268   0.269   0.272   0.275   0.280   0.289   0.306   0.307
 32 A2   34 B2   33 A2   64 B1   68 A1   65 B1   66 B1   34 A2                 
  0.321   0.330   0.334   0.337   0.343   0.347   0.347   0.361
 67 B1   35 B2   69 A1   36 B2   70 A1   68 B1   71 A1   35 A2                 
  0.366   0.366   0.369   0.373   0.398   0.399   0.406   0.415
 37 B2   69 B1   72 A1   36 A2   37 A2   73 A1   70 B1   38 B2                 
  0.423   0.424   0.426   0.428   0.443   0.454   0.456   0.463
 71 B1   39 B2   74 A1   38 A2   72 B1   75 A1   73 B1   76 A1                 
  0.464   0.485   0.488   0.490   0.492   0.494   0.507   0.518
 39 A2   77 A1   74 B1   75 B1   78 A1   40 B2   41 B2   79 A1                 
  0.527   0.530   0.540   0.544   0.550   0.556   0.557   0.562
 76 B1   40 A2   80 A1   42 B2   81 A1   77 B1   78 B1   41 A2                 
  0.612   0.617   0.621   0.631   0.639   0.649   0.685   0.704
 79 B1   43 B2   82 A1   80 B1   83 A1   42 A2   81 B1   84 A1                 
  0.731   0.742   0.789   0.829   0.834   0.843   0.866   0.959
 82 B1   85 A1   83 B1   84 B1   86 A1   87 A1   85 B1   88 A1                 
  1.683   1.691   1.742   1.801   2.027   2.046   2.203   2.261
 44 B2   89 A1   43 A2   86 B1   90 A1   87 B1   45 B2   91 A1                 
  4.941   5.270   5.405   5.408   5.419   5.420   5.449   5.527
 92 A1   88 B1   44 A2   89 B1   46 B2   93 A1   94 A1   47 B2                 
  5.527   5.611   6.392   6.693   6.794   6.973   7.416   7.454
 95 A1   90 B1   96 A1   97 A1   91 B1   92 B1   93 B1   48 B2                 
  7.504   7.533   7.603   7.675   7.686   7.717   9.113   9.582
 98 A1   99 A1   49 B2  100 A1   45 A2   94 B1  101 A1   95 B1                 
 10.832  11.905  12.873  14.968
102 A1   96 B1  103 A1   97 B1                                                 

 Beta MOs, Restricted
 -- Occupied --                  
 -4.321  -4.321  -4.295  -4.295  -4.295  -4.295  -4.295  -4.295
  1 B1    1 A1    2 A1    2 B1    3 B1    3 A1    4 B1    4 A1                 
 -4.278  -4.278  -4.277  -4.277  -2.472  -2.469  -2.449  -2.449
  5 B1    5 A1    6 A1    6 B1    7 A1    7 B1    8 A1    8 B1                 
 -2.440  -2.440  -2.437  -2.437  -2.437  -2.437  -2.434  -2.434
  1 B2    1 A2    9 A1    9 B1   10 A1   10 B1   11 A1   11 B1                 
 -2.431  -2.431  -2.426  -2.426  -2.426  -2.426  -2.419  -2.419
 12 B1   12 A1   13 B1   13 A1   14 B1   14 A1    2 A2    2 B2                 
 -2.419  -2.419  -2.418  -2.418  -2.417  -2.417  -2.415  -2.415
  3 A2    3 B2    4 B2    4 A2   15 B1   15 A1   16 B1   16 A1                 
 -2.411  -2.411  -2.410  -2.410  -2.403  -2.403  -2.403  -2.403
 17 B1   17 A1   18 B1   18 A1    5 B2    5 A2    6 B2    6 A2                 
 -0.681  -0.549  -0.541  -0.536  -0.535  -0.532  -0.511  -0.506
 19 A1   19 B1   20 A1   21 A1   20 B1   21 B1   22 A1   22 B1                 
 -0.506  -0.502  -0.500  -0.493  -0.491  -0.490  -0.489  -0.480
 23 A1    7 B2   24 A1   23 B1   24 B1    7 A2   25 A1    8 B2                 
 -0.480  -0.467  -0.467  -0.464  -0.461  -0.459  -0.457  -0.452
  8 A2    9 B2    9 A2   26 A1   10 B2   10 A2   25 B1   11 B2                 
 -0.451  -0.449  -0.445  -0.441  -0.439  -0.438  -0.435  -0.433
 27 A1   26 B1   27 B1   11 A2   12 B2   12 A2   28 A1   28 B1                 
 -0.429  -0.428  -0.428  -0.427  -0.427  -0.424  -0.424  -0.424
 29 A1   30 A1   29 B1   13 B2   13 A2   31 A1   30 B1   31 B1                 
 -0.419  -0.419  -0.415  -0.415  -0.415  -0.413  -0.410  -0.408
 14 B2   14 A2   15 B2   15 A2   32 A1   32 B1   33 A1   34 A1                 
 -0.408  -0.408  -0.407  -0.404  -0.403  -0.401  -0.401  -0.401
 33 B1   34 B1   16 B2   35 A1   16 A2   36 A1   17 B2   17 A2                 
 -0.400  -0.396  -0.396  -0.391  -0.390  -0.389  -0.387  -0.362
 35 B1   18 A2   18 B2   37 A1   36 B1   37 B1   38 A1   39 A1                 
 -0.362  -0.354
 38 B1   39 B1                                                                 
 -- Virtual --                   
 -0.301  -0.231  -0.219  -0.219  -0.218  -0.195  -0.172  -0.162
 40 A1   41 A1   40 B1   42 A1   41 B1   42 B1   19 B2   19 A2                 
 -0.155  -0.133  -0.122  -0.120  -0.104  -0.103  -0.102  -0.102
 43 A1   44 A1   20 B2   43 B1   45 A1   21 B2   20 A2   46 A1                 
 -0.100  -0.092  -0.084  -0.065  -0.044  -0.042  -0.038  -0.038
 44 B1   21 A2   45 B1   46 B1   22 B2   47 A1   48 A1   23 B2                 
 -0.037  -0.032  -0.032  -0.029  -0.027  -0.026  -0.024  -0.016
 47 B1   22 A2   24 B2   23 A2   49 A1   50 A1   48 B1   49 B1                 
 -0.015  -0.012  -0.004  -0.001   0.001   0.006   0.009   0.013
 51 A1   50 B1   24 A2   51 B1   25 B2   52 A1   53 A1   52 B1                 
  0.013   0.015   0.021   0.022   0.024   0.032   0.033   0.036
 53 B1   25 A2   54 A1   55 A1   54 B1   56 A1   26 B2   27 B2                 
  0.036   0.040   0.042   0.050   0.058   0.065   0.075   0.082
 55 B1   56 B1   26 A2   57 A1   27 A2   57 B1   28 B2   29 B2                 
  0.083   0.086   0.089   0.090   0.091   0.101   0.107   0.113
 28 A2   30 B2   58 A1   59 A1   29 A2   60 A1   58 B1   59 B1                 
  0.114   0.123   0.124   0.136   0.154   0.159   0.161   0.167
 30 A2   61 A1   62 A1   60 B1   61 B1   63 A1   64 A1   62 B1                 
  0.203   0.221   0.240   0.240   0.248   0.257   0.265   0.265
 63 B1   65 A1   66 A1   31 B2   32 B2   67 A1   33 B2   31 A2                 
  0.268   0.269   0.272   0.275   0.280   0.289   0.306   0.307
 32 A2   34 B2   33 A2   64 B1   68 A1   65 B1   66 B1   34 A2                 
  0.321   0.330   0.334   0.337   0.343   0.347   0.347   0.361
 67 B1   35 B2   69 A1   36 B2   70 A1   68 B1   71 A1   35 A2                 
  0.366   0.366   0.369   0.373   0.398   0.399   0.406   0.415
 37 B2   69 B1   72 A1   36 A2   37 A2   73 A1   70 B1   38 B2                 
  0.423   0.424   0.426   0.428   0.443   0.454   0.456   0.463
 71 B1   39 B2   74 A1   38 A2   72 B1   75 A1   73 B1   76 A1                 
  0.464   0.485   0.488   0.490   0.492   0.494   0.507   0.518
 39 A2   77 A1   74 B1   75 B1   78 A1   40 B2   41 B2   79 A1                 
  0.527   0.530   0.540   0.544   0.550   0.556   0.557   0.562
 76 B1   40 A2   80 A1   42 B2   81 A1   77 B1   78 B1   41 A2                 
  0.612   0.617   0.621   0.631   0.639   0.649   0.685   0.704
 79 B1   43 B2   82 A1   80 B1   83 A1   42 A2   81 B1   84 A1                 
  0.731   0.742   0.789   0.829   0.834   0.843   0.866   0.959
 82 B1   85 A1   83 B1   84 B1   86 A1   87 A1   85 B1   88 A1                 
  1.683   1.691   1.742   1.801   2.027   2.046   2.203   2.261
 44 B2   89 A1   43 A2   86 B1   90 A1   87 B1   45 B2   91 A1                 
  4.941   5.270   5.405   5.408   5.419   5.420   5.449   5.527
 92 A1   88 B1   44 A2   89 B1   46 B2   93 A1   94 A1   47 B2                 
  5.527   5.611   6.392   6.693   6.794   6.973   7.416   7.454
 95 A1   90 B1   96 A1   97 A1   91 B1   92 B1   93 B1   48 B2                 
  7.504   7.533   7.603   7.675   7.686   7.717   9.113   9.582
 98 A1   99 A1   49 B2  100 A1   45 A2   94 B1  101 A1   95 B1                 
 10.832  11.905  12.873  14.968
102 A1   96 B1  103 A1   97 B1                                                 
 --------------------------------------------------------------

          Ground-State Mulliken Net Atomic Charges

     Atom                 Charge (a.u.)
  ----------------------------------------
      1 H                    -1.275350
      2 Au                    0.924480
      3 Au                    0.140492
      4 Au                    0.140148
      5 Au                    0.059574
      6 Au                   -0.063700
      7 Au                   -0.063319
      8 Au                    0.924480
      9 Au                    0.140492
     10 Au                    0.140148
     11 Au                    0.059574
     12 Au                   -0.063700
     13 Au                   -0.063319
  ----------------------------------------
  Sum of atomic charges =     1.000000

 -----------------------------------------------------------------
                    Cartesian Multipole Moments
 -----------------------------------------------------------------
    Charge (ESU x 10^10)
                 4.8032
    Dipole Moment (Debye)
         X      -0.0000000306      Y       0.0000000000      Z       0.0276881994
       Tot       0.0276881994
    Quadrupole Moments (Debye-Ang)
        XX    -112.7728     XY       0.0000     YY    -278.1826
        XZ      -0.0000     YZ       0.0000     ZZ    -232.4155
    Octopole Moments (Debye-Ang^2)
       XXX      -0.0000    XXY       0.0000    XYY      -0.0000
       YYY      -0.0000    XXZ       0.7924    XYZ       0.0000
       YYZ       0.0219    XZZ      -0.0000    YZZ      -0.0000
       ZZZ      -0.1044
    Hexadecapole Moments (Debye-Ang^3)
      XXXX  -31190.9233   XXXY       0.0000   XXYY   -6569.8861
      XYYY      -0.0000   YYYY    -332.8419   XXXZ      -0.0000
      XXYZ       0.0000   XYYZ       0.0000   YYYZ       0.0000
      XXZZ   -5585.2551   XYZZ      -0.0000   YYZZ    -903.9328
      XZZZ      -0.0000   YZZZ       0.0000   ZZZZ   -4546.2463
 -----------------------------------------------------------------
 Electrostatic potential will be computed using the SCF density
   ... ESP will be evaluated on the $plots plotting cube.
 ESP points per batch =         5000
   ... The data will be saved in the file plot.esp
  --- DONE ESP SUMMARY ---
 Total job time:  15.07s(wall), 256.10s(cpu) 
 Mon Aug 21 15:40:08 2023

        *************************************************************
        *                                                           *
        *  Thank you very much for using Q-Chem.  Have a nice day.  *
        *                                                           *
        *************************************************************


